<UPF version="2.0.1">
  <PP_INFO>
    Generated by new atomic code, or converted to UPF format
    Author: 
    Generation date: 
    Pseudopotential type: US
    Element: B
    Functional:  SLA  PW   PBX  PBC

    Suggested minimum cutoff for wavefunctions:   0. Ry
    Suggested minimum cutoff for charge density:   0. Ry
    The Pseudo was generated with a Non-Relativistic Calculation
    L component and cutoff radius for Local Potential:  0   0.0000

    Valence configuration: 
    nl pn  l   occ       Rcut    Rcut US       E pseu
    2S  0  0  2.00      1.100      1.250     0.000000
    2P  0  1  1.00      1.100      1.250     0.000000

    Generation configuration: not available.
  </PP_INFO>
  <!--                               -->
  <!-- END OF HUMAN READABLE SECTION -->
  <!--                               -->
  <PP_HEADER generated="Generated by new atomic code, or converted to UPF format"
             author=""
             date=""
             comment=""
             element="B "
             pseudo_type="US"
             relativistic="no"
             is_ultrasoft="T"
             is_paw="F"
             is_coulomb="F"
             has_so="F"
             has_wfc="F"
             has_gipaw="F"
             paw_as_gipaw="F"
             core_correction="T"
             functional=" SLA  PW   PBX  PBC"
             z_valence="3.000000000000000E+000"
             total_psenergy="-6.007449128550000E+000"
             wfc_cutoff="0.000000000000000E+000"
             rho_cutoff="0.000000000000000E+000"
             l_max="1"
             l_max_rho="0"
             l_local="0"
             mesh_size="781"
             number_of_wfc="2"
             number_of_proj="4"/>
  <PP_MESH dx="Infinity" mesh="781" xmin="-Infinity" rmax="8.068557632220001E+001" zmesh="5.000000000000000E+000">
    <PP_R type="real" size="781" columns="4">
 0.000000000000000E+000  3.065077917280000E-006  6.181668546690000E-006  9.350637627900001E-006 
 1.257286545050000E-005  1.584924709840000E-005  1.918069269880000E-005  2.256812767460000E-005 
 2.601249300180000E-005  2.951474547060000E-005  3.307585795150000E-005  3.669681966540000E-005 
 4.037863645810000E-005  4.412233108020000E-005  4.792894347100000E-005  5.179953104730000E-005 
 5.573516899720000E-005  5.973695057880000E-005  6.380598742380000E-005  6.794340984630000E-005 
 7.215036715710000E-005  7.642802798230000E-005  8.077758058860000E-005  8.520023321300000E-005 
 8.969721439870000E-005  9.426977333590000E-005  9.891918020930000E-005  1.036467265510000E-004 
 1.084537255980000E-004  1.133415126590000E-004  1.183114454850000E-004  1.233649046430000E-004 
 1.285032939060000E-004  1.337280406360000E-004  1.390405961860000E-004  1.444424363000000E-004 
 1.499350615240000E-004  1.555199976220000E-004  1.611987960010000E-004  1.669730341410000E-004 
 1.728443160360000E-004  1.788142726340000E-004  1.848845622950000E-004  1.910568712490000E-004 
 1.973329140670000E-004  2.037144341350000E-004  2.102032041360000E-004  2.168010265510000E-004 
 2.235097341480000E-004  2.303311905020000E-004  2.372672905050000E-004  2.443199608970000E-004 
 2.514911607970000E-004  2.587828822520000E-004  2.661971507860000E-004  2.737360259680000E-004 
 2.814016019760000E-004  2.891960081870000E-004  2.971214097640000E-004  3.051800082590000E-004 
 3.133740422220000E-004  3.217057878280000E-004  3.301775595020000E-004  3.387917105710000E-004 
 3.475506339080000E-004  3.564567626050000E-004  3.655125706430000E-004  3.747205735830000E-004 
 3.840833292620000E-004  3.936034385070000E-004  4.032835458530000E-004  4.131263402810000E-004 
 4.231345559640000E-004  4.333109730270000E-004  4.436584183170000E-004  4.541797661910000E-004 
 4.648779393140000E-004  4.757559094680000E-004  4.868166983830000E-004  4.980633785710000E-004 
 5.094990741820000E-004  5.211269618720000E-004  5.329502716830000E-004  5.449722879460000E-004 
 5.571963501860000E-004  5.696258540540000E-004  5.822642522710000E-004  5.951150555840000E-004 
 6.081818337440000E-004  6.214682164940000E-004  6.349778945820000E-004  6.487146207840000E-004 
 6.626822109439999E-004  6.768845450400000E-004  6.913255682540000E-004  7.060092920760000E-004 
 7.209397954120000E-004  7.361212257190000E-004  7.515578001600000E-004  7.672538067710000E-004 
 7.832136056550001E-004  7.994416301919999E-004  8.159423882710000E-004  8.327204635420000E-004 
 8.497805166890000E-004  8.671272867250000E-004  8.847655923100000E-004  9.027003330860000E-004 
 9.209364910410000E-004  9.394791318920000E-004  9.583334064909999E-004  9.775045522580001E-004 
 9.969978946340000E-004  1.016818848560000E-003  1.036972919990000E-003  1.057465707400000E-003 
 1.078302903370000E-003  1.099490296140000E-003  1.121033771230000E-003  1.142939313080000E-003 
 1.165213006710000E-003  1.187861039380000E-003  1.210889702380000E-003  1.234305392700000E-003 
 1.258114614840000E-003  1.282323982640000E-003  1.306940221070000E-003  1.331970168140000E-003 
 1.357420776770000E-003  1.383299116730000E-003  1.409612376630000E-003  1.436367865870000E-003 
 1.463573016690000E-003  1.491235386270000E-003  1.519362658780000E-003  1.547962647510000E-003 
 1.577043297110000E-003  1.606612685710000E-003  1.636679027230000E-003  1.667250673610000E-003 
 1.698336117190000E-003  1.729943993000000E-003  1.762083081210000E-003  1.794762309560000E-003 
 1.827990755820000E-003  1.861777650320000E-003  1.896132378530000E-003  1.931064483660000E-003 
 1.966583669290000E-003  2.002699802080000E-003  2.039422914540000E-003  2.076763207750000E-003 
 2.114731054270000E-003  2.153337000970000E-003  2.192591771960000E-003  2.232506271600000E-003 
 2.273091587500000E-003  2.314358993640000E-003  2.356319953430000E-003  2.398986122990000E-003 
 2.442369354280000E-003  2.486481698490000E-003  2.531335409330000E-003  2.576942946450000E-003 
 2.623316978920000E-003  2.670470388690000E-003  2.718416274250000E-003  2.767167954190000E-003 
 2.816738970980000E-003  2.867143094660000E-003  2.918394326690000E-003  2.970506903860000E-003 
 3.023495302220000E-003  3.077374241110000E-003  3.132158687240000E-003  3.187863858880000E-003 
 3.244505230030000E-003  3.302098534790000E-003  3.360659771650000E-003  3.420205208000000E-003 
 3.480751384640000E-003  3.542315120320000E-003  3.604913516480000E-003  3.668563961970000E-003 
 3.733284137870000E-003  3.799092022440000E-003  3.866005896050000E-003  3.934044346330000E-003 
 4.003226273290000E-003  4.073570894560000E-003  4.145097750790000E-003  4.217826710990000E-003 
 4.291777978120000E-003  4.366972094680000E-003  4.443429948410000E-003  4.521172778090000E-003 
 4.600222179450000E-003  4.680600111170000E-003  4.762328900960000E-003  4.845431251790000E-003 
 4.929930248190000E-003  5.015849362640000E-003  5.103212462110000E-003  5.192043814700000E-003 
 5.282368096350000E-003  5.374210397710000E-003  5.467596231140000E-003  5.562551537740000E-003 
 5.659102694590000E-003  5.757276522080000E-003  5.857100291350000E-003  5.958601731870000E-003 
 6.061809039140000E-003  6.166750882500000E-003  6.273456413160000E-003  6.381955272220000E-003 
 6.492277598950000E-003  6.604454039160000E-003  6.718515753680000E-003  6.834494427060000E-003 
 6.952422276340000E-003  7.072332060020000E-003  7.194257087140000E-003  7.318231226540000E-003 
 7.444288916300000E-003  7.572465173230000E-003  7.702795602690000E-003  7.835316408400000E-003 
 7.970064402560000E-003  8.107077016029999E-003  8.246392308740001E-003  8.388048980300000E-003 
 8.532086380670000E-003  8.678544521190001E-003  8.827464085599999E-003  8.978886441410001E-003 
 9.132853651369999E-003  9.289408485120000E-003  9.448594431129999E-003  9.610455708739999E-003 
 9.775037280459999E-003  9.942384864450000E-003  1.011254494720000E-002  1.028556479660000E-002 
 1.046149247470000E-002  1.064037685150000E-002  1.082226761820000E-002  1.100721530120000E-002 
 1.119527127610000E-002  1.138648778190000E-002  1.158091793540000E-002  1.177861574630000E-002 
 1.197963613190000E-002  1.218403493260000E-002  1.239186892700000E-002  1.260319584820000E-002 
 1.281807439950000E-002  1.303656427070000E-002  1.325872615480000E-002  1.348462176500000E-002 
 1.371431385140000E-002  1.394786621900000E-002  1.418534374480000E-002  1.442681239630000E-002 
 1.467233924980000E-002  1.492199250860000E-002  1.517584152270000E-002  1.543395680710000E-002 
 1.569641006230000E-002  1.596327419360000E-002  1.623462333170000E-002  1.651053285300000E-002 
 1.679107940090000E-002  1.707634090680000E-002  1.736639661170000E-002  1.766132708870000E-002 
 1.796121426480000E-002  1.826614144380000E-002  1.857619332970000E-002  1.889145605000000E-002 
 1.921201717980000E-002  1.953796576580000E-002  1.986939235140000E-002  2.020638900180000E-002 
 2.054904932920000E-002  2.089746851930000E-002  2.125174335740000E-002  2.161197225540000E-002 
 2.197825527940000E-002  2.235069417680000E-002  2.272939240540000E-002  2.311445516160000E-002 
 2.350598940960000E-002  2.390410391160000E-002  2.430890925750000E-002  2.472051789570000E-002 
 2.513904416470000E-002  2.556460432440000E-002  2.599731658880000E-002  2.643730115850000E-002 
 2.688468025420000E-002  2.733957815080000E-002  2.780212121180000E-002  2.827243792420000E-002 
 2.875065893470000E-002  2.923691708550000E-002  2.973134745140000E-002  3.023408737740000E-002 
 3.074527651670000E-002  3.126505686960000E-002  3.179357282280000E-002  3.233097118980000E-002 
 3.287740125120000E-002  3.343301479680000E-002  3.399796616720000E-002  3.457241229700000E-002 
 3.515651275820000E-002  3.575042980480000E-002  3.635432841740000E-002  3.696837634970000E-002 
 3.759274417440000E-002  3.822760533100000E-002  3.887313617400000E-002  3.952951602160000E-002 
 4.019692720580000E-002  4.087555512290000E-002  4.156558828490000E-002  4.226721837220000E-002 
 4.298064028660000E-002  4.370605220540000E-002  4.444365563660000E-002  4.519365547470000E-002 
 4.595626005790000E-002  4.673168122560000E-002  4.752013437770000E-002  4.832183853400000E-002 
 4.913701639520000E-002  4.996589440490000E-002  5.080870281220000E-002  5.166567573610000E-002 
 5.253705123000000E-002  5.342307134840000E-002  5.432398221370000E-002  5.524003408460000E-002 
 5.617148142590000E-002  5.711858297890000E-002  5.808160183360000E-002  5.906080550130000E-002 
 6.005646598930000E-002  6.106885987650000E-002  6.209826838980000E-002  6.314497748270000E-002 
 6.420927791440000E-002  6.529146533080001E-002  6.639184034650000E-002  6.751070862819999E-002 
 6.864838098000001E-002  6.980517342910000E-002  7.098140731440000E-002  7.217740937490000E-002 
 7.339351184119999E-002  7.463005252730000E-002  7.588737492470000E-002  7.716582829780000E-002 
 7.846576778059999E-002  7.978755447590000E-002  8.113155555500000E-002  8.249814436029999E-002 
 8.388770050860000E-002  8.530060999660000E-002  8.673726530830000E-002  8.819806552380000E-002 
 8.968341643030001E-002  9.119373063489999E-002  9.272942767910000E-002  9.429093415510000E-002 
 9.587868382480000E-002  9.749311774010000E-002  9.913468436520000E-002  1.008038397010000E-001 
 1.025010474130000E-001  1.042267789590000E-001  1.059815137190000E-001  1.077657391320000E-001 
 1.095799508260000E-001  1.114246527610000E-001  1.133003573660000E-001  1.152075856830000E-001 
 1.171468675090000E-001  1.191187415460000E-001  1.211237555490000E-001  1.231624664810000E-001 
 1.252354406620000E-001  1.273432539310000E-001  1.294864918070000E-001  1.316657496470000E-001 
 1.338816328140000E-001  1.361347568460000E-001  1.384257476240000E-001  1.407552415510000E-001 
 1.431238857220000E-001  1.455323381090000E-001  1.479812677430000E-001  1.504713548980000E-001 
 1.530032912800000E-001  1.555777802210000E-001  1.581955368740000E-001  1.608572884110000E-001 
 1.635637742220000E-001  1.663157461290000E-001  1.691139685850000E-001  1.719592188920000E-001 
 1.748522874150000E-001  1.777939778040000E-001  1.807851072140000E-001  1.838265065330000E-001 
 1.869190206130000E-001  1.900635085070000E-001  1.932608437030000E-001  1.965119143710000E-001 
 1.998176236070000E-001  2.031788896840000E-001  2.065966463100000E-001  2.100718428820000E-001 
 2.136054447560000E-001  2.171984335110000E-001  2.208518072220000E-001  2.245665807390000E-001 
 2.283437859660000E-001  2.321844721530000E-001  2.360897061800000E-001  2.400605728610000E-001 
 2.440981752390000E-001  2.482036348970000E-001  2.523780922660000E-001  2.566227069440000E-001 
 2.609386580200000E-001  2.653271443950000E-001  2.697893851220000E-001  2.743266197410000E-001 
 2.789401086240000E-001  2.836311333260000E-001  2.884009969380000E-001  2.932510244540000E-001 
 2.981825631350000E-001  3.031969828850000E-001  3.082956766290000E-001  3.134800607050000E-001 
 3.187515752530000E-001  3.241116846150000E-001  3.295618777470000E-001  3.351036686250000E-001 
 3.407385966710000E-001  3.464682271800000E-001  3.522941517530000E-001  3.582179887380000E-001 
 3.642413836850000E-001  3.703660097970000E-001  3.765935684000000E-001  3.829257894100000E-001 
 3.893644318180000E-001  3.959112841780000E-001  4.025681651010000E-001  4.093369237650000E-001 
 4.162194404230000E-001  4.232176269290000E-001  4.303334272710000E-001  4.375688181040000E-001 
 4.449258093050000E-001  4.524064445320000E-001  4.600128017850000E-001  4.677469939920000E-001 
 4.756111695880000E-001  4.836075131180000E-001  4.917382458380000E-001  5.000056263390000E-001 
 5.084119511680000E-001  5.169595554700001E-001  5.256508136340000E-001  5.344881399530000E-001 
 5.434739892990000E-001  5.526108577970000E-001  5.619012835260000E-001  5.713478472200000E-001 
 5.809531729830000E-001  5.907199290250000E-001  6.006508283960000E-001  6.107486297430000E-001 
 6.210161380750000E-001  6.314562055450000E-001  6.420717322380000E-001  6.528656669789999E-001 
 6.638410081540000E-001  6.750008045390000E-001  6.863481561490000E-001  6.978862150990000E-001 
 7.096181864800000E-001  7.215473292480000E-001  7.336769571310000E-001  7.460104395470000E-001 
 7.585512025440000E-001  7.713027297460000E-001  7.842685633280000E-001  7.974523049930000E-001 
 8.108576169760000E-001  8.244882230610000E-001  8.383479096150001E-001  8.524405266410000E-001 
 8.667699888440000E-001  8.813402767230000E-001  8.961554376750001E-001  9.112195871150000E-001 
 9.265369096290000E-001  9.421116601250000E-001  9.579481650240000E-001  9.740508234560000E-001 
 9.904241084860000E-001  1.007072568350000E+000  1.024000827740000E+000  1.041213589040000E+000 
 1.058715633700000E+000  1.076511823500000E+000  1.094607101950000E+000  1.113006495630000E+000 
 1.131715115590000E+000  1.150738158810000E+000  1.170080909570000E+000  1.189748740990000E+000 
 1.209747116490000E+000  1.230081591290000E+000  1.250757813990000E+000  1.271781528130000E+000 
 1.293158573750000E+000  1.314894889060000E+000  1.336996512060000E+000  1.359469582250000E+000 
 1.382320342270000E+000  1.405555139720000E+000  1.429180428860000E+000  1.453202772400000E+000 
 1.477628843390000E+000  1.502465427000000E+000  1.527719422440000E+000  1.553397844870000E+000 
 1.579507827350000E+000  1.606056622820000E+000  1.633051606120000E+000  1.660500276030000E+000 
 1.688410257350000E+000  1.716789303040000E+000  1.745645296350000E+000  1.774986253020000E+000 
 1.804820323490000E+000  1.835155795220000E+000  1.866001094900000E+000  1.897364790880000E+000 
 1.929255595500000E+000  1.961682367510000E+000  1.994654114570000E+000  2.028179995700000E+000 
 2.062269323870000E+000  2.096931568550000E+000  2.132176358370000E+000  2.168013483770000E+000 
 2.204452899740000E+000  2.241504728570000E+000  2.279179262680000E+000  2.317486967450000E+000 
 2.356438484170000E+000  2.396044632950000E+000  2.436316415750000E+000  2.477265019430000E+000 
 2.518901818880000E+000  2.561238380140000E+000  2.604286463630000E+000  2.648058027440000E+000 
 2.692565230610000E+000  2.737820436540000E+000  2.783836216410000E+000  2.830625352680000E+000 
 2.878200842640000E+000  2.926575901990000E+000  2.975763968580000E+000  3.025778706070000E+000 
 3.076634007750000E+000  3.128344000440000E+000  3.180923048360000E+000  3.234385757120000E+000 
 3.288746977830000E+000  3.344021811170000E+000  3.400225611630000E+000  3.457373991720000E+000 
 3.515482826370000E+000  3.574568257300000E+000  3.634646697500000E+000  3.695734835810000E+000 
 3.757849641560000E+000  3.821008369250000E+000  3.885228563390000E+000  3.950528063330000E+000 
 4.016925008240000E+000  4.084437842150000E+000  4.153085319040000E+000  4.222886508120000E+000 
 4.293860799030000E+000  4.366027907330000E+000  4.439407879900000E+000  4.514021100520000E+000 
 4.589888295590000E+000  4.667030539800000E+000  4.745469262050000E+000  4.825226251380000E+000 
 4.906323663030000E+000  4.988784024570000E+000  5.072630242190000E+000  5.157885607050000E+000 
 5.244573801730000E+000  5.332718906850000E+000  5.422345407740000E+000  5.513478201210000E+000 
 5.606142602510000E+000  5.700364352360000E+000  5.796169624070000E+000  5.893585030820000E+000 
 5.992637633090000E+000  6.093354946110000E+000  6.195764947570000E+000  6.299896085360000E+000 
 6.405777285440000E+000  6.513437959960000E+000  6.622908015350000E+000  6.734217860650000E+000 
 6.847398415980000E+000  6.962481121130000E+000  7.079497944230000E+000  7.198481390730000E+000 
 7.319464512340000E+000  7.442480916270000E+000  7.567564774520000E+000  7.694750833410000E+000 
 7.824074423240000E+000  7.955571468040000E+000  8.089278495620000E+000  8.225232647680000E+000 
 8.363471690140001E+000  8.504034023619999E+000  8.646958694109999E+000  8.792285403839999E+000 
 8.940054522270000E+000  9.090307097320000E+000  9.243084866789999E+000  9.398430269920000E+000 
 9.556386459230000E+000  9.716997312440000E+000  9.880307444710001E+000  1.004636222100000E+001 
 1.021520776880000E+001  1.038689099060000E+001  1.056145957730000E+001  1.073896202140000E+001 
 1.091944763020000E+001  1.110296653980000E+001  1.128956972880000E+001  1.147930903270000E+001 
 1.167223715800000E+001  1.186840769710000E+001  1.206787514310000E+001  1.227069490490000E+001 
 1.247692332260000E+001  1.268661768320000E+001  1.289983623660000E+001  1.311663821140000E+001 
 1.333708383180000E+001  1.356123433410000E+001  1.378915198390000E+001  1.402090009290000E+001 
 1.425654303730000E+001  1.449614627480000E+001  1.473977636350000E+001  1.498750098000000E+001 
 1.523938893820000E+001  1.549551020870000E+001  1.575593593780000E+001  1.602073846780000E+001 
 1.628999135660000E+001  1.656376939840000E+001  1.684214864440000E+001  1.712520642400000E+001 
 1.741302136620000E+001  1.770567342140000E+001  1.800324388370000E+001  1.830581541350000E+001 
 1.861347206040000E+001  1.892629928660000E+001  1.924438399050000E+001  1.956781453100000E+001 
 1.989668075200000E+001  2.023107400740000E+001  2.057108718630000E+001  2.091681473900000E+001 
 2.126835270320000E+001  2.162579873060000E+001  2.198925211400000E+001  2.235881381510000E+001 
 2.273458649220000E+001  2.311667452900000E+001  2.350518406370000E+001  2.390022301790000E+001 
 2.430190112740000E+001  2.471032997180000E+001  2.512562300630000E+001  2.554789559280000E+001 
 2.597726503190000E+001  2.641385059560000E+001  2.685777356060000E+001  2.730915724160000E+001 
 2.776812702580000E+001  2.823481040790000E+001  2.870933702510000E+001  2.919183869340000E+001 
 2.968244944410000E+001  3.018130556120000E+001  3.068854561910000E+001  3.120431052090000E+001 
 3.172874353810000E+001  3.226199034980000E+001  3.280419908360000E+001  3.335552035650000E+001 
 3.391610731690000E+001  3.448611568700000E+001  3.506570380600000E+001  3.565503267450000E+001 
 3.625426599860000E+001  3.686357023600000E+001  3.748311464170000E+001  3.811307131530000E+001 
 3.875361524900000E+001  3.940492437560000E+001  4.006717961860000E+001  4.074056494200000E+001 
 4.142526740160000E+001  4.212147719690000E+001  4.282938772410000E+001  4.354919562960000E+001 
 4.428110086440000E+001  4.502530674050000E+001  4.578201998640000E+001  4.655145080510000E+001 
 4.733381293240000E+001  4.812932369610000E+001  4.893820407650000E+001  4.976067876770000E+001 
 5.059697624040000E+001  5.144732880480000E+001  5.231197267520000E+001  5.319114803620000E+001 
 5.408509910880000E+001  5.499407421850000E+001  5.591832586420000E+001  5.685811078840000E+001 
 5.781369004850000E+001  5.878532908940000E+001  5.977329781700000E+001  6.077787067350000E+001 
 6.179932671330000E+001  6.283794968070000E+001  6.389402808900000E+001  6.496785529979999E+001 
 6.605972960550000E+001  6.716995431159999E+001  6.829883782090000E+001  6.944669371940000E+001 
 7.061384086330000E+001  7.180060346780000E+001  7.300731119670000E+001  7.423429925430000E+001 
 7.548190847870001E+001  7.675048543580000E+001  7.804038251640000E+001  7.935195803360000E+001 
 8.068557632220001E+001
    </PP_R>
    <PP_RAB type="real" size="781" columns="4">
 3.039606551850000E-006  3.090691183800000E-006  3.142634360960000E-006  3.195450512310000E-006 
 3.249154309360000E-006  3.303760670160000E-006  3.359284763500000E-006  3.415742013090000E-006 
 3.473148101880000E-006  3.531518976360000E-006  3.590870851040000E-006  3.651220212940000E-006 
 3.712583826150000E-006  3.774978736520000E-006  3.838422276370000E-006  3.902932069300000E-006 
 3.968526035140000E-006  4.035222394830000E-006  4.103039675580000E-006  4.171996715950000E-006 
 4.242112671130000E-006  4.313407018220000E-006  4.385899561660000E-006  4.459610438730000E-006 
 4.534560125160000E-006  4.610769440780000E-006  4.688259555340000E-006  4.767051994360000E-006 
 4.847168645150000E-006  4.928631762830000E-006  5.011463976590000E-006  5.095688295900000E-006 
 5.181328116950000E-006  5.268407229120000E-006  5.356949821620000E-006  5.446980490190000E-006 
 5.538524243910000E-006  5.631606512210000E-006  5.726253151860000E-006  5.822490454200000E-006 
 5.920345152450000E-006  6.019844429080000E-006  6.121015923430000E-006  6.223887739340000E-006 
 6.328488452970000E-006  6.434847120760000E-006  6.542993287460000E-006  6.652956994360000E-006 
 6.764768787650000E-006  6.878459726880000E-006  6.994061393600000E-006  7.111605900130000E-006 
 7.231125898460000E-006  7.352654589370000E-006  7.476225731620000E-006  7.601873651310000E-006 
 7.729633251450001E-006  7.859540021630000E-006  7.991630047920000E-006  8.125940022830000E-006 
 8.262507255549999E-006  8.401369682310000E-006  8.542565876889999E-006  8.686135061360001E-006 
 8.832117116980000E-006  8.980552595260000E-006  9.131482729230000E-006  9.284949444890000E-006 
 9.440995372880000E-006  9.599663860290000E-006  9.760998982730000E-006  9.925045556530000E-006 
 1.009184915130000E-005  1.026145610230000E-005  1.043391352380000E-005  1.060926932170000E-005 
 1.078757220710000E-005  1.096887170970000E-005  1.115321819160000E-005  1.134066286140000E-005 
 1.153125778820000E-005  1.172505591640000E-005  1.192211107990000E-005  1.212247801760000E-005 
 1.232621238830000E-005  1.253337078610000E-005  1.274401075640000E-005  1.295819081160000E-005 
 1.317597044760000E-005  1.339741016010000E-005  1.362257146150000E-005  1.385151689820000E-005 
 1.408431006760000E-005  1.432101563580000E-005  1.456169935610000E-005  1.480642808640000E-005 
 1.505526980870000E-005  1.530829364720000E-005  1.556556988790000E-005  1.582716999800000E-005 
 1.609316664610000E-005  1.636363372170000E-005  1.663864635640000E-005  1.691828094420000E-005 
 1.720261516330000E-005  1.749172799730000E-005  1.778569975700000E-005  1.808461210330000E-005 
 1.838854806920000E-005  1.869759208340000E-005  1.901182999340000E-005  1.933134908950000E-005 
 1.965623812910000E-005  1.998658736120000E-005  2.032248855170000E-005  2.066403500860000E-005 
 2.101132160810000E-005  2.136444482090000E-005  2.172350273900000E-005  2.208859510320000E-005 
 2.245982333030000E-005  2.283729054160000E-005  2.322110159160000E-005  2.361136309680000E-005 
 2.400818346590000E-005  2.441167292920000E-005  2.482194356970000E-005  2.523910935420000E-005 
 2.566328616470000E-005  2.609459183080000E-005  2.653314616240000E-005  2.697907098290000E-005 
 2.743249016340000E-005  2.789352965640000E-005  2.836231753140000E-005  2.883898401040000E-005 
 2.932366150370000E-005  2.981648464710000E-005  3.031759033900000E-005  3.082711777870000E-005 
 3.134520850500000E-005  3.187200643510000E-005  3.240765790540000E-005  3.295231171120000E-005 
 3.350611914880000E-005  3.406923405720000E-005  3.464181286070000E-005  3.522401461280000E-005 
 3.581600104000000E-005  3.641793658650000E-005  3.702998846080000E-005  3.765232668110000E-005 
 3.828512412310000E-005  3.892855656800000E-005  3.958280275110000E-005  4.024804441180000E-005 
 4.092446634360000E-005  4.161225644580000E-005  4.231160577580000E-005  4.302270860160000E-005 
 4.374576245650000E-005  4.448096819330000E-005  4.522853004070000E-005  4.598865565940000E-005 
 4.676155620050000E-005  4.754744636330000E-005  4.834654445590000E-005  4.915907245510000E-005 
 4.998525606830000E-005  5.082532479620000E-005  5.167951199670000E-005  5.254805494950000E-005 
 5.343119492220000E-005  5.432917723690000E-005  5.524225133920000E-005  5.617067086650000E-005 
 5.711469371910000E-005  5.807458213160000E-005  5.905060274600000E-005  6.004302668530000E-005 
 6.105212962910000E-005  6.207819189040000E-005  6.312149849310000E-005  6.418233925130000E-005 
 6.526100884970000E-005  6.635780692580000E-005  6.747303815270000E-005  6.860701232400000E-005 
 6.976004444000000E-005  7.093245479460000E-005  7.212456906500000E-005  7.333671840160000E-005 
 7.456923952060001E-005  7.582247479660001E-005  7.709677235869999E-005  7.839248618669999E-005 
 7.970997620940000E-005  8.104960840460000E-005  8.241175490110000E-005  8.379679408169999E-005 
 8.520511068840000E-005  8.663709592920000E-005  8.809314758710000E-005  8.957367013020001E-005 
 9.107907482429999E-005  9.260977984710000E-005  9.416621040420000E-005  9.574879884750000E-005 
 9.735798479500001E-005  9.899421525320000E-005  1.006579447410000E-004  1.023496354160000E-004 
 1.040697572040000E-004  1.058187879270000E-004  1.075972134380000E-004  1.094055277560000E-004 
 1.112442332010000E-004  1.131138405380000E-004  1.150148691130000E-004  1.169478470030000E-004 
 1.189133111580000E-004  1.209118075520000E-004  1.229438913370000E-004  1.250101269940000E-004 
 1.271110884900000E-004  1.292473594390000E-004  1.314195332630000E-004  1.336282133590000E-004 
 1.358740132610000E-004  1.381575568190000E-004  1.404794783640000E-004  1.428404228900000E-004 
 1.452410462300000E-004  1.476820152380000E-004  1.501640079790000E-004  1.526877139090000E-004 
 1.552538340750000E-004  1.578630813040000E-004  1.605161804040000E-004  1.632138683640000E-004 
 1.659568945600000E-004  1.687460209590000E-004  1.715820223390000E-004  1.744656864950000E-004 
 1.773978144630000E-004  1.803792207430000E-004  1.834107335210000E-004  1.864931949050000E-004 
 1.896274611540000E-004  1.928144029160000E-004  1.960549054750000E-004  1.993498689900000E-004 
 2.027002087510000E-004  2.061068554280000E-004  2.095707553360000E-004  2.130928706890000E-004 
 2.166741798770000E-004  2.203156777300000E-004  2.240183757990000E-004  2.277833026350000E-004 
 2.316115040760000E-004  2.355040435350000E-004  2.394620022980000E-004  2.434864798230000E-004 
 2.475785940480000E-004  2.517394816960000E-004  2.559702985970000E-004  2.602722200040000E-004 
 2.646464409240000E-004  2.690941764450000E-004  2.736166620800000E-004  2.782151541020000E-004 
 2.828909299000000E-004  2.876452883310000E-004  2.924795500810000E-004  2.973950580310000E-004 
 3.023931776310000E-004  3.074752972810000E-004  3.126428287130000E-004  3.178972073850000E-004 
 3.232398928810000E-004  3.286723693150000E-004  3.341961457430000E-004  3.398127565820000E-004 
 3.455237620380000E-004  3.513307485400000E-004  3.572353291740000E-004  3.632391441420000E-004 
 3.693438612080000E-004  3.755511761650000E-004  3.818628133090000E-004  3.882805259120000E-004 
 3.948060967130000E-004  4.014413384130000E-004  4.081880941770000E-004  4.150482381470000E-004 
 4.220236759640000E-004  4.291163452930000E-004  4.363282163660000E-004  4.436612925270000E-004 
 4.511176107890000E-004  4.586992423990000E-004  4.664082934140000E-004  4.742469052880000E-004 
 4.822172554630000E-004  4.903215579770001E-004  4.985620640750000E-004  5.069410628420000E-004 
 5.154608818310000E-004  5.241238877120000E-004  5.329324869320000E-004  5.418891263810000E-004 
 5.509962940720000E-004  5.602565198320000E-004  5.696723760050000E-004  5.792464781680000E-004 
 5.889814858550000E-004  5.988801032980000E-004  6.089450801760000E-004  6.191792123800000E-004 
 6.295853427920000E-004  6.401663620690000E-004  6.509252094520000E-004  6.618648735790000E-004 
 6.729883933160000E-004  6.842988586000000E-004  6.957994113000000E-004  7.074932460890000E-004 
 7.193836113290000E-004  7.314738099750000E-004  7.437672004950000E-004  7.562671977970001E-004 
 7.689772741830000E-004  7.819009603130000E-004  7.950418461810000E-004  8.084035821190000E-004 
 8.219898798050000E-004  8.358045133000000E-004  8.498513200880000E-004  8.641342021530000E-004 
 8.786571270520000E-004  8.934241290260000E-004  9.084393101130000E-004  9.237068412950000E-004 
 9.392309636500000E-004  9.550159895340000E-004  9.710663037780000E-004  9.873863649060000E-004 
 1.003980706370000E-003  1.020853937830000E-003  1.038010746380000E-003  1.055455897930000E-003 
 1.073194238460000E-003  1.091230695400000E-003  1.109570278990000E-003  1.128218083690000E-003 
 1.147179289550000E-003  1.166459163700000E-003  1.186063061790000E-003  1.205996429470000E-003 
 1.226264803900000E-003  1.246873815340000E-003  1.267829188630000E-003  1.289136744850000E-003 
 1.310802402900000E-003  1.332832181150000E-003  1.355232199140000E-003  1.378008679220000E-003 
 1.401167948360000E-003  1.424716439830000E-003  1.448660695020000E-003  1.473007365280000E-003 
 1.497763213720000E-003  1.522935117130000E-003  1.548530067870000E-003  1.574555175800000E-003 