<UPF version="2.0.1">
  <PP_INFO>

 This pseudopotential file has been produced using the code
 ONCVPSP  (Optimized Norm-Conservinng Vanderbilt PSeudopotential)
 scalar-relativistic version 3.2.3 08/16/2016 by D. R. Hamann
 The code is available through a link at URL www.mat-simresearch.com.
 Documentation with the package provides a full discription of the
 input data below.


 While it is not required under the terms of the GNU GPL, it is
 suggested that you cite D. R. Hamann, Phys. Rev. B 88, 085117 (2013)
 in any publication using these pseudopotentials.

    <PP_INPUTFILE>
# ATOM AND REFERENCE CONFIGURATION
# atsym  z   nc   nv     iexc    psfile
  F  9.00    1    2       4      upf
#
#   n    l    f        energy (Ha)
    1    0    2.00
    2    0    2.00
    2    1    5.00
#
# PSEUDOPOTENTIAL AND OPTIMIZATION
# lmax
    2
#
#   l,   rc,      ep,       ncon, nbas, qcut
    0   1.30000  -1.09879    4    8   8.60000
    1   1.45000  -0.40834    4    8   9.00000
    2   1.60000   0.15000    4    8   5.80000
#
# LOCAL POTENTIAL
# lloc, lpopt,  rc(5),   dvloc0
    4    5   0.95000      0.00000
#
# VANDERBILT-KLEINMAN-BYLANDER PROJECTORs
# l, nproj, debl
    0    2   1.50000
    1    2   1.50000
    2    1   2.00000
#
# MODEL CORE CHARGE
# icmod, fcfact, rcfact
    3   2.50000   1.85000
#
# LOG DERIVATIVE ANALYSIS
# epsh1, epsh2, depsh
  -12.00   12.00    0.02
#
# OUTPUT GRID
# rlmax, drl
    6.00    0.01
#
# TEST CONFIGURATIONS
# ncnf
    0
# nvcnf
#   n    l    f
    </PP_INPUTFILE>
  </PP_INFO>
  <!--                               -->
  <!-- END OF HUMAN READABLE SECTION -->
  <!--                               -->
    <PP_HEADER
       generated="Generated using ONCVPSP code by D. R. Hamann"
       author="anonymous"
       date="170214"
       comment=""
       element="F "
       pseudo_type="NC"
       relativistic="scalar"
       is_ultrasoft="F"
       is_paw="F"
       is_coulomb="F"
       has_so="F"
       has_wfc="F"
       has_gipaw="F"
       core_correction="T"
       functional="PBE"
       z_valence="    7.00"
       total_psenergy="  -4.77521448926E+01"
       rho_cutoff="   8.31000000000E+00"
       l_max="2"
       l_local="-1"
       mesh_size="   832"
       number_of_wfc="2"
       number_of_proj="5"/>
 <PP_MESH>
   <PP_R type="real"  size=" 832" columns="8">
    0.0000    0.0100    0.0200    0.0300    0.0400    0.0500    0.0600    0.0700
    0.0800    0.0900    0.1000    0.1100    0.1200    0.1300    0.1400    0.1500
    0.1600    0.1700    0.1800    0.1900    0.2000    0.2100    0.2200    0.2300
    0.2400    0.2500    0.2600    0.2700    0.2800    0.2900    0.3000    0.3100
    0.3200    0.3300    0.3400    0.3500    0.3600    0.3700    0.3800    0.3900
    0.4000    0.4100    0.4200    0.4300    0.4400    0.4500    0.4600    0.4700
    0.4800    0.4900    0.5000    0.5100    0.5200    0.5300    0.5400    0.5500
    0.5600    0.5700    0.5800    0.5900    0.6000    0.6100    0.6200    0.6300
    0.6400    0.6500    0.6600    0.6700    0.6800    0.6900    0.7000    0.7100
    0.7200    0.7300    0.7400    0.7500    0.7600    0.7700    0.7800    0.7900
    0.8000    0.8100    0.8200    0.8300    0.8400    0.8500    0.8600    0.8700
    0.8800    0.8900    0.9000    0.9100    0.9200    0.9300    0.9400    0.9500
    0.9600    0.9700    0.9800    0.9900    1.0000    1.0100    1.0200    1.0300
    1.0400    1.0500    1.0600    1.0700    1.0800    1.0900    1.1000    1.1100
    1.1200    1.1300    1.1400    1.1500    1.1600    1.1700    1.1800    1.1900
    1.2000    1.2100    1.2200    1.2300    1.2400    1.2500    1.2600    1.2700
    1.2800    1.2900    1.3000    1.3100    1.3200    1.3300    1.3400    1.3500
    1.3600    1.3700    1.3800    1.3900    1.4000    1.4100    1.4200    1.4300
    1.4400    1.4500    1.4600    1.4700    1.4800    1.4900    1.5000    1.5100
    1.5200    1.5300    1.5400    1.5500    1.5600    1.5700    1.5800    1.5900
    1.6000    1.6100    1.6200    1.6300    1.6400    1.6500    1.6600    1.6700
    1.6800    1.6900    1.7000    1.7100    1.7200    1.7300    1.7400    1.7500
    1.7600    1.7700    1.7800    1.7900    1.8000    1.8100    1.8200    1.8300
    1.8400    1.8500    1.8600    1.8700    1.8800    1.8900    1.9000    1.9100
    1.9200    1.9300    1.9400    1.9500    1.9600    1.9700    1.9800    1.9900
    2.0000    2.0100    2.0200    2.0300    2.0400    2.0500    2.0600    2.0700
    2.0800    2.0900    2.1000    2.1100    2.1200    2.1300    2.1400    2.1500
    2.1600    2.1700    2.1800    2.1900    2.2000    2.2100    2.2200    2.2300
    2.2400    2.2500    2.2600    2.2700    2.2800    2.2900    2.3000    2.3100
    2.3200    2.3300    2.3400    2.3500    2.3600    2.3700    2.3800    2.3900
    2.4000    2.4100    2.4200    2.4300    2.4400    2.4500    2.4600    2.4700
    2.4800    2.4900    2.5000    2.5100    2.5200    2.5300    2.5400    2.5500
    2.5600    2.5700    2.5800    2.5900    2.6000    2.6100    2.6200    2.6300
    2.6400    2.6500    2.6600    2.6700    2.6800    2.6900    2.7000    2.7100
    2.7200    2.7300    2.7400    2.7500    2.7600    2.7700    2.7800    2.7900
    2.8000    2.8100    2.8200    2.8300    2.8400    2.8500    2.8600    2.8700
    2.8800    2.8900    2.9000    2.9100    2.9200    2.9300    2.9400    2.9500
    2.9600    2.9700    2.9800    2.9900    3.0000    3.0100    3.0200    3.0300
    3.0400    3.0500    3.0600    3.0700    3.0800    3.0900    3.1000    3.1100
    3.1200    3.1300    3.1400    3.1500    3.1600    3.1700    3.1800    3.1900
    3.2000    3.2100    3.2200    3.2300    3.2400    3.2500    3.2600    3.2700
    3.2800    3.2900    3.3000    3.3100    3.3200    3.3300    3.3400    3.3500
    3.3600    3.3700    3.3800    3.3900    3.4000    3.4100    3.4200    3.4300
    3.4400    3.4500    3.4600    3.4700    3.4800    3.4900    3.5000    3.5100
    3.5200    3.5300    3.5400    3.5500    3.5600    3.5700    3.5800    3.5900
    3.6000    3.6100    3.6200    3.6300    3.6400    3.6500    3.6600    3.6700
    3.6800    3.6900    3.7000    3.7100    3.7200    3.7300    3.7400    3.7500
    3.7600    3.7700    3.7800    3.7900    3.8000    3.8100    3.8200    3.8300
    3.8400    3.8500    3.8600    3.8700    3.8800    3.8900    3.9000    3.9100
    3.9200    3.9300    3.9400    3.9500    3.9600    3.9700    3.9800    3.9900
    4.0000    4.0100    4.0200    4.0300    4.0400    4.0500    4.0600    4.0700
    4.0800    4.0900    4.1000    4.1100    4.1200    4.1300    4.1400    4.1500
    4.1600    4.1700    4.1800    4.1900    4.2000    4.2100    4.2200    4.2300
    4.2400    4.2500    4.2600    4.2700    4.2800    4.2900    4.3000    4.3100
    4.3200    4.3300    4.3400    4.3500    4.3600    4.3700    4.3800    4.3900
    4.4000    4.4100    4.4200    4.4300    4.4400    4.4500    4.4600    4.4700
    4.4800    4.4900    4.5000    4.5100    4.5200    4.5300    4.5400    4.5500
    4.5600    4.5700    4.5800    4.5900    4.6000    4.6100    4.6200    4.6300
    4.6400    4.6500    4.6600    4.6700    4.6800    4.6900    4.7000    4.7100
    4.7200    4.7300    4.7400    4.7500    4.7600    4.7700    4.7800    4.7900
    4.8000    4.8100    4.8200    4.8300    4.8400    4.8500    4.8600    4.8700
    4.8800    4.8900    4.9000    4.9100    4.9200    4.9300    4.9400    4.9500
    4.9600    4.9700    4.9800    4.9900    5.0000    5.0100    5.0200    5.0300
    5.0400    5.0500    5.0600    5.0700    5.0800    5.0900    5.1000    5.1100
    5.1200    5.1300    5.1400    5.1500    5.1600    5.1700    5.1800    5.1900
    5.2000    5.2100    5.2200    5.2300    5.2400    5.2500    5.2600    5.2700
    5.2800    5.2900    5.3000    5.3100    5.3200    5.3300    5.3400    5.3500
    5.3600    5.3700    5.3800    5.3900    5.4000    5.4100    5.4200    5.4300
    5.4400    5.4500    5.4600    5.4700    5.4800    5.4900    5.5000    5.5100
    5.5200    5.5300    5.5400    5.5500    5.5600    5.5700    5.5800    5.5900
    5.6000    5.6100    5.6200    5.6300    5.6400    5.6500    5.6600    5.6700
    5.6800    5.6900    5.7000    5.7100    5.7200    5.7300    5.7400    5.7500
    5.7600    5.7700    5.7800    5.7900    5.8000    5.8100    5.8200    5.8300
    5.8400    5.8500    5.8600    5.8700    5.8800    5.8900    5.9000    5.9100
    5.9200    5.9300    5.9400    5.9500    5.9600    5.9700    5.9800    5.9900
    6.0000    6.0100    6.0200    6.0300    6.0400    6.0500    6.0600    6.0700
    6.0800    6.0900    6.1000    6.1100    6.1200    6.1300    6.1400    6.1500
    6.1600    6.1700    6.1800    6.1900    6.2000    6.2100    6.2200    6.2300
    6.2400    6.2500    6.2600    6.2700    6.2800    6.2900    6.3000    6.3100
    6.3200    6.3300    6.3400    6.3500    6.3600    6.3700    6.3800    6.3900
    6.4000    6.4100    6.4200    6.4300    6.4400    6.4500    6.4600    6.4700
    6.4800    6.4900    6.5000    6.5100    6.5200    6.5300    6.5400    6.5500
    6.5600    6.5700    6.5800    6.5900    6.6000    6.6100    6.6200    6.6300
    6.6400    6.6500    6.6600    6.6700    6.6800    6.6900    6.7000    6.7100
    6.7200    6.7300    6.7400    6.7500    6.7600    6.7700    6.7800    6.7900
    6.8000    6.8100    6.8200    6.8300    6.8400    6.8500    6.8600    6.8700
    6.8800    6.8900    6.9000    6.9100    6.9200    6.9300    6.9400    6.9500
    6.9600    6.9700    6.9800    6.9900    7.0000    7.0100    7.0200    7.0300
    7.0400    7.0500    7.0600    7.0700    7.0800    7.0900    7.1000    7.1100
    7.1200    7.1300    7.1400    7.1500    7.1600    7.1700    7.1800    7.1900
    7.2000    7.2100    7.2200    7.2300    7.2400    7.2500    7.2600    7.2700
    7.2800    7.2900    7.3000    7.3100    7.3200    7.3300    7.3400    7.3500
    7.3600    7.3700    7.3800    7.3900    7.4000    7.4100    7.4200    7.4300
    7.4400    7.4500    7.4600    7.4700    7.4800    7.4900    7.5000    7.5100
    7.5200    7.5300    7.5400    7.5500    7.5600    7.5700    7.5800    7.5900
    7.6000    7.6100    7.6200    7.6300    7.6400    7.6500    7.6600    7.6700
    7.6800    7.6900    7.7000    7.7100    7.7200    7.7300    7.7400    7.7500
    7.7600    7.7700    7.7800    7.7900    7.8000    7.8100    7.8200    7.8300
    7.8400    7.8500    7.8600    7.8700    7.8800    7.8900    7.9000    7.9100
    7.9200    7.9300    7.9400    7.9500    7.9600    7.9700    7.9800    7.9900
    8.0000    8.0100    8.0200    8.0300    8.0400    8.0500    8.0600    8.0700
    8.0800    8.0900    8.1000    8.1100    8.1200    8.1300    8.1400    8.1500
    8.1600    8.1700    8.1800    8.1900    8.2000    8.2100    8.2200    8.2300
    8.2400    8.2500    8.2600    8.2700    8.2800    8.2900    8.3000    8.3100
   </PP_R>
   <PP_RAB type="real"  size=" 832" columns="8">
    0.0100    0.0100    0.0100    0.0100    0.0100    0.0100    0.0100    0.0100
    0.0100    0.0100    0.0100    0.0100    0.0100    0.0100    0.0100    0.0100
    0.0100    0.0100    0.0100    0.0100    0.0100    0.0100    0.0100    0.0100
    0.0100    0.0100    0.0100    0.0100    0.0100    0.0100    0.0100    0.0100
    0.0100    0.0100    0.0100    0.0100    0.0100    0.0100    0.0100    0.0100
    0.0100    0.0100    0.0100    0.0100    0.0100    0.0100    0.0100    0.0100
    0.0100    0.0100    0.0100    0.0100    0.0100    0.0100    0.0100    0.0100
    0.0100    0.0100    0.0100    0.0100    0.0100    0.0100    0.0100    0.0100
    0.0100    0.0100    0.0100    0.0100    0.0100    0.0100    0.0100    0.0100
    0.0100    0.0100    0.0100    0.0100    0.0100    0.0100    0.0100    0.0100
    0.0100    0.0100    0.0100    0.0100    0.0100    0.0100    0.0100    0.0100
    0.0100    0.0100    0.0100    0.0100    0.0100    0.0100    0.0100    0.0100
    0.0100    0.0100    0.0100    0.0100    0.0100    0.0100    0.0100    0.0100
    0.0100    0.0100    0.0100    0.0100    0.0100    0.0100    0.0100    0.0100
    0.0100    0.0100    0.0100    0.0100    0.0100    0.0100    0.0100    0.0100
    0.0100    0.0100    0.0100    0.0100    0.0100    0.0100    0.0100    0.0100
    0.0100    0.0100    0.0100    0.0100    0.0100    0.0100    0.0100    0.0100
    0.0100    0.0100    0.0100    0.0100    0.0100    0.0100    0.0100    0.0100
    0.0100    0.0100    0.0100    0.0100    0.0100    0.0100    0.0100    0.0100
    0.0100    0.0100    0.0100    0.0100    0.0100    0.0100    0.0100    0.0100
    0.0100    0.0100    0.0100    0.0100    0.0100    0.0100    0.0100    0.0100
    0.0100    0.0100    0.0100    0.0100    0.0100    0.0100    0.0100    0.0100
    0.0100    0.0100    0.0100    0.0100    0.0100    0.0100    0.0100    0.0100
    0.0100    0.0100    0.0100    0.0100    0.0100    0.0100    0.0100    0.0100
    0.0100    0.0100    0.0100    0.0100    0.0100    0.0100    0.0100    0.0100
    0.0100    0.0100    0.0100    0.0100    0.0100    0.0100    0.0100    0.0100
    0.0100    0.0100    0.0100    0.0100    0.0100    0.0100    0.0100    0.0100
    0.0100    0.0100    0.0100    0.0100    0.0100    0.0100    0.0100    0.0100
    0.0100    0.0100    0.0100    0.0100    0.0100    0.0100    0.0100    0.0100
    0.0100    0.0100    0.0100    0.0100    0.0100    0.0100    0.0100    0.0100
    0.0100    0.0100    0.0100    0.0100    0.0100    0.0100    0.0100    0.0100
    0.0100    0.0100    0.0100    0.0100    0.0100    0.0100    0.0100    0.0100
    0.0100    0.0100    0.0100    0.0100    0.0100    0.0100    0.0100    0.0100
    0.0100    0.0100    0.0100    0.0100    0.0100    0.0100    0.0100    0.0100
    0.0100    0.0100    0.0100    0.0100    0.0100    0.0100    0.0100    0.0100
    0.0100    0.0100    0.0100    0.0100    0.0100    0.0100    0.0100    0.0100
    0.0100    0.0100    0.0100    0.0100    0.0100    0.0100    0.0100    0.0100
    0.0100    0.0100    0.0100    0.0100    0.0100    0.0100    0.0100    0.0100
    0.0100    0.0100    0.0100    0.0100    0.0100    0.0100    0.0100    0.0100
    0.0100    0.0100    0.0100    0.0100    0.0100    0.0100    0.0100    0.0100
    0.0100    0.0100    0.0100    0.0100    0.0100    0.0100    0.0100    0.0100
    0.0100    0.0100    0.0100    0.0100    0.0100    0.0100    0.0100    0.0100
    0.0100    0.0100    0.0100    0.0100    0.0100    0.0100    0.0100    0.0100
    0.0100    0.0100    0.0100    0.0100    0.0100    0.0100    0.0100    0.0100
    0.0100    0.0100    0.0100    0.0100    0.0100    0.0100    0.0100    0.0100
    0.0100    0.0100    0.0100    0.0100    0.0100    0.0100    0.0100    0.0100
    0.0100    0.0100    0.0100    0.0100    0.0100    0.0100    0.0100    0.0100
    0.0100    0.0100    0.0100    0.0100    0.0100    0.0100    0.0100    0.0100
    0.0100    0.0100    0.0100    0.0100    0.0100    0.0100    0.0100    0.0100
    0.0100    0.0100    0.0100    0.0100    0.0100    0.0100    0.0100    0.0100
    0.0100    0.0100    0.0100    0.0100    0.0100    0.0100    0.0100    0.0100
    0.0100    0.0100    0.0100    0.0100    0.0100    0.0100    0.0100    0.0100
    0.0100    0.0100    0.0100    0.0100    0.0100    0.0100    0.0100    0.0100
    0.0100    0.0100    0.0100    0.0100    0.0100    0.0100    0.0100    0.0100
    0.0100    0.0100    0.0100    0.0100    0.0100    0.0100    0.0100    0.0100
    0.0100    0.0100    0.0100    0.0100    0.0100    0.0100    0.0100    0.0100
    0.0100    0.0100    0.0100    0.0100    0.0100    0.0100    0.0100    0.0100
    0.0100    0.0100    0.0100    0.0100    0.0100    0.0100    0.0100    0.0100
    0.0100    0.0100    0.0100    0.0100    0.0100    0.0100    0.0100    0.0100
    0.0100    0.0100    0.0100    0.0100    0.0100    0.0100    0.0100    0.0100
    0.0100    0.0100    0.0100    0.0100    0.0100    0.0100    0.0100    0.0100
    0.0100    0.0100    0.0100    0.0100    0.0100    0.0100    0.0100    0.0100
    0.0100    0.0100    0.0100    0.0100    0.0100    0.0100    0.0100    0.0100
    0.0100    0.0100    0.0100    0.0100    0.0100    0.0100    0.0100    0.0100
    0.0100    0.0100    0.0100    0.0100    0.0100    0.0100    0.0100    0.0100
    0.0100    0.0100    0.0100    0.0100    0.0100    0.0100    0.0100    0.0100
    0.0100    0.0100    0.0100    0.0100    0.0100    0.0100    0.0100    0.0100
    0.0100    0.0100    0.0100    0.0100    0.0100    0.0100    0.0100    0.0100
    0.0100    0.0100    0.0100    0.0100    0.0100    0.0100    0.0100    0.0100
    0.0100    0.0100    0.0100    0.0100    0.0100    0.0100    0.0100    0.0100
    0.0100    0.0100    0.0100    0.0100    0.0100    0.0100    0.0100    0.0100
    0.0100    0.0100    0.0100    0.0100    0.0100    0.0100    0.0100    0.0100
    0.0100    0.0100    0.0100    0.0100    0.0100    0.0100    0.0100    0.0100
    0.0100    0.0100    0.0100    0.0100    0.0100    0.0100    0.0100    0.0100
    0.0100    0.0100    0.0100    0.0100    0.0100    0.0100    0.0100    0.0100
    0.0100    0.0100    0.0100    0.0100    0.0100    0.0100    0.0100    0.0100
    0.0100    0.0100    0.0100    0.0100    0.0100    0.0100    0.0100    0.0100
    0.0100    0.0100    0.0100    0.0100    0.0100    0.0100    0.0100    0.0100
    0.0100    0.0100    0.0100    0.0100    0.0100    0.0100    0.0100    0.0100
    0.0100    0.0100    0.0100    0.0100    0.0100    0.0100    0.0100    0.0100
    0.0100    0.0100    0.0100    0.0100    0.0100    0.0100    0.0100    0.0100
    0.0100    0.0100    0.0100    0.0100    0.0100    0.0100    0.0100    0.0100
    0.0100    0.0100    0.0100    0.0100    0.0100    0.0100    0.0100    0.0100
    0.0100    0.0100    0.0100    0.0100    0.0100    0.0100    0.0100    0.0100
    0.0100    0.0100    0.0100    0.0100    0.0100    0.0100    0.0100    0.0100
    0.0100    0.0100    0.0100    0.0100    0.0100    0.0100    0.0100    0.0100
    0.0100    0.0100    0.0100    0.0100    0.0100    0.0100    0.0100    0.0100
    0.0100    0.0100    0.0100    0.0100    0.0100    0.0100    0.0100    0.0100
    0.0100    0.0100    0.0100    0.0100    0.0100    0.0100    0.0100    0.0100
    0.0100    0.0100    0.0100    0.0100    0.0100    0.0100    0.0100    0.0100
    0.0100    0.0100    0.0100    0.0100    0.0100    0.0100    0.0100    0.0100
    0.0100    0.0100    0.0100    0.0100    0.0100    0.0100    0.0100    0.0100
    0.0100    0.0100    0.0100    0.0100    0.0100    0.0100    0.0100    0.0100
    0.0100    0.0100    0.0100    0.0100    0.0100    0.0100    0.0100    0.0100
    0.0100    0.0100    0.0100    0.0100    0.0100    0.0100    0.0100    0.0100
    0.0100    0.0100    0.0100    0.0100    0.0100    0.0100    0.0100    0.0100
    0.0100    0.0100    0.0100    0.0100    0.0100    0.0100    0.0100    0.0100
    0.0100    0.0100    0.0100    0.0100    0.0100    0.0100    0.0100    0.0100
    0.0100    0.0100    0.0100    0.0100    0.0100    0.0100    0.0100    0.0100
    0.0100    0.0100    0.0100    0.0100    0.0100    0.0100    0.0100    0.0100
    0.0100    0.0100    0.0100    0.0100    0.0100    0.0100    0.0100    0.0100
    0.0100    0.0100    0.0100    0.0100    0.0100    0.0100    0.0100    0.0100
    0.0100    0.0100    0.0100    0.0100    0.0100    0.0100    0.0100    0.0100
    0.0100    0.0100    0.0100    0.0100    0.0100    0.0100    0.0100    0.0100
   </PP_RAB>
 </PP_MESH>
  <PP_LOCAL type="real"  size=" 832" columns="4">
   -3.0452198874E+01   -3.0449340070E+01   -3.0440769889E+01   -3.0426506941E+01
   -3.0406581473E+01   -3.0381034301E+01   -3.0349915404E+01   -3.0313282253E+01
   -3.0271197991E+01   -3.0223729546E+01   -3.0170945778E+01   -3.0112915734E+01
   -3.0049707091E+01   -2.9981384829E+01   -2.9908010158E+01   -2.9829639740E+01
   -2.9746325177E+01   -2.9658112768E+01   -2.9565043509E+01   -2.9467153308E+01
   -2.9364473385E+01   -2.9257030815E+01   -2.9144849192E+01   -2.9027949386E+01
   -2.8906350353E+01   -2.8780069989E+01   -2.8649126004E+01   -2.8513536799E+01
   -2.8373322335E+01   -2.8228504988E+01   -2.8079110374E+01   -2.7925168148E+01
   -2.7766712765E+01   -2.7603784203E+01   -2.7436428638E+01   -2.7264699078E+01
   -2.7088655940E+01   -2.6908367568E+01   -2.6723910695E+01   -2.6535370833E+01
   -2.6342842584E+01   -2.6146429884E+01   -2.5946246147E+01   -2.5742414333E+01
   -2.5535066916E+01   -2.5324345763E+01   -2.5110401925E+01   -2.4893395329E+01
   -2.4673494403E+01   -2.4450875616E+01   -2.4225722960E+01   -2.3998227380E+01
   -2.3768586155E+01   -2.3537002262E+01   -2.3303683713E+01   -2.3068842886E+01
   -2.2832695854E+01   -2.2595461718E+01   -2.2357361943E+01   -2.2118619705E+01
   -2.1879459239E+01   -2.1640105185E+01   -2.1400781941E+01   -2.1161712993E+01
   -2.0923120251E+01   -2.0685223357E+01   -2.0448238987E+01   -2.0212380131E+01
   -1.9977855370E+01   -1.9744868136E+01   -1.9513615982E+01   -1.9284289846E+01
   -1.9057073345E+01   -1.8832142076E+01   -1.8609662967E+01   -1.8389793650E+01
   -1.8172681898E+01   -1.7958465104E+01   -1.7747269814E+01   -1.7539211329E+01
   -1.7334393352E+01   -1.7132907703E+01   -1.6934834081E+01   -1.6740239879E+01
   -1.6549180048E+01   -1.6361696994E+01   -1.6177820515E+01   -1.5997567767E+01
   -1.5820943239E+01   -1.5647938759E+01   -1.5478533498E+01   -1.5312693975E+01
   -1.5150374061E+01   -1.4991514976E+01   -1.4836045262E+01   -1.4683880801E+01
   -1.4534924562E+01   -1.4389067425E+01   -1.4246195864E+01   -1.4106199772E+01
   -1.3968973790E+01   -1.3834416961E+01   -1.3702432782E+01   -1.3572929146E+01
   -1.3445818269E+01   -1.3321016597E+01   -1.3198444711E+01   -1.3078027206E+01
   -1.2959692573E+01   -1.2843373063E+01   -1.2729004555E+01   -1.2616526415E+01
   -1.2505881357E+01   -1.2397015305E+01   -1.2289877258E+01   -1.2184419157E+01
   -1.2080595765E+01   -1.1978364539E+01   -1.1877685525E+01   -1.1778521240E+01
   -1.1680836579E+01   -1.1584598710E+01   -1.1489776982E+01   -1.1396342833E+01
   -1.1304269697E+01   -1.1213532904E+01   -1.1124109604E+01   -1.1035978692E+01
   -1.0949120536E+01   -1.0863516917E+01   -1.0779151301E+01   -1.0696011770E+01
   -1.0614091990E+01   -1.0533392888E+01   -1.0453907170E+01   -1.0375617254E+01
   -1.0298509651E+01   -1.0222571436E+01   -1.0147788316E+01   -1.0074145552E+01
   -1.0001627676E+01   -9.9302180413E+00   -9.8598993942E+00   -9.7906533581E+00
   -9.7224611312E+00   -9.6552985876E+00   -9.5891300252E+00   -9.5239073169E+00
   -9.4595692802E+00   -9.3960804814E+00   -9.3334365078E+00   -9.2716242104E+00
   -9.2106235991E+00   -9.1504192260E+00   -9.0909961487E+00   -9.0323394156E+00
   -8.9744344967E+00   -8.9172672421E+00   -8.8608238348E+00   -8.8050907776E+00
   -8.7500548796E+00   -8.6957032441E+00   -8.6420232577E+00   -8.5890025827E+00
   -8.5366291505E+00   -8.4848911564E+00   -8.4337770563E+00   -8.3832755638E+00
   -8.3333756475E+00   -8.2840665296E+00   -8.2353376835E+00   -8.1871788314E+00
   -8.1395799420E+00   -8.0925312269E+00   -8.0460231364E+00   -8.0000463550E+00
   -7.9545917953E+00   -7.9096505916E+00   -7.8652140950E+00   -7.8212738639E+00
   -7.7778216556E+00   -7.7348494215E+00   -7.6923492852E+00   -7.6503135183E+00
   -7.6087346015E+00   -7.5676053408E+00   -7.5269186716E+00   -7.4866673649E+00
   -7.4468442767E+00   -7.4074425588E+00   -7.3684555915E+00   -7.3298768798E+00
   -7.2917000357E+00   -7.2539188106E+00   -7.2165270880E+00   -7.1795188746E+00
   -7.1428883004E+00   -7.1066296146E+00   -7.0707371824E+00   -7.0352054822E+00
   -7.0000291031E+00   -6.9652027417E+00   -6.9307211996E+00   -6.8965793809E+00
   -6.8627722896E+00   -6.8292950271E+00   -6.7961427902E+00   -6.7633108683E+00
   -6.7307946413E+00   -6.6985895778E+00   -6.6666912324E+00   -6.6350952444E+00
   -6.6037973349E+00   -6.5727933057E+00   -6.5420790369E+00   -6.5116504853E+00
   -6.4815036827E+00   -6.4516347339E+00   -6.4220398151E+00   -6.3927151726E+00
   -6.3636571206E+00   -6.3348620405E+00   -6.3063263784E+00   -6.2780466444E+00
   -6.2500194110E+00   -6.2222413115E+00   -6.1947090387E+00   -6.1674193437E+00
   -6.1403690349E+00   -6.1135549762E+00   -6.0869740862E+00   -6.0606233366E+00
   -6.0344997515E+00   -6.0086004058E+00   -5.9829224247E+00   -5.9574629824E+00
   -5.9322193010E+00   -5.9071886492E+00   -5.8823683417E+00   -5.8577557383E+00
   -5.8333482427E+00   -5.8091433016E+00   -5.7851384041E+00   -5.7613310805E+00
   -5.7377189016E+00   -5.7142994778E+00   -5.6910704585E+00   -5.6680295311E+00
   -5.6451744203E+00   -5.6225028874E+00   -5.6000127293E+00   -5.5777017783E+00
   -5.5555679009E+00   -5.5336089975E+00   -5.5118230014E+00   -5.4902078784E+00
   -5.4687616261E+00   -5.4474822732E+00   -5.4263678791E+00   -5.4054165330E+00
   -5.3846263535E+00   -5.3639954882E+00   -5.3435221128E+00   -5.3232044309E+00
   -5.3030406732E+00   -5.2830290972E+00   -5.2631679865E+00   -5.2434556504E+00
   -5.2238904237E+00   -5.2044706655E+00   -5.1851947597E+00   -5.1660611137E+00
   -5.1470681584E+00   -5.1282143479E+00   -5.1094981585E+00   -5.0909180889E+00
   -5.0724726596E+00   -5.0541604124E+00   -5.0359799099E+00   -5.0179297357E+00
   -5.0000084932E+00   -4.9822148059E+00   -4.9645473169E+00   -4.9470046884E+00
   -4.9295856013E+00   -4.9122887552E+00   -4.8951128679E+00   -4.8780566749E+00
   -4.8611189294E+00   -4.8442984018E+00   -4.8275938795E+00   -4.8110041665E+00
   -4.7945280832E+00   -4.7781644663E+00   -4.7619121679E+00   -4.7457700562E+00
   -4.7297370142E+00   -4.7138119402E+00   -4.6979937473E+00   -4.6822813631E+00
   -4.6666737294E+00   -4.6511698022E+00   -4.6357685513E+00   -4.6204689600E+00
   -4.6052700252E+00   -4.5901707566E+00   -4.5751701772E+00   -4.5602673226E+00
   -4.5454612408E+00   -4.5307509923E+00   -4.5161356496E+00   -4.5016142973E+00
   -4.4871860315E+00   -4.4728499600E+00   -4.4586052019E+00   -4.4444508877E+00
   -4.4303861585E+00   -4.4164101666E+00   -4.4025220748E+00   -4.3887210565E+00
   -4.3750062952E+00   -4.3613769849E+00   -4.3478323293E+00   -4.3343715422E+00
   -4.3209938470E+00   -4.3076984767E+00   -4.2944846737E+00   -4.2813516896E+00
   -4.2682987852E+00   -4.2553252302E+00   -4.2424303034E+00   -4.2296132919E+00
   -4.2168734918E+00   -4.2042102075E+00   -4.1916227516E+00   -4.1791104450E+00
   -4.1666726169E+00   -4.1543086040E+00   -4.1420177514E+00   -4.1297994114E+00
   -4.1176529443E+00   -4.1055777177E+00   -4.0935731068E+00   -4.0816384937E+00
   -4.0697732682E+00   -4.0579768268E+00   -4.0462485731E+00   -4.0345879176E+00
   -4.0229942775E+00   -4.0114670767E+00   -4.0000057458E+00   -3.9886097216E+00
   -3.9772784478E+00   -3.9660113738E+00   -3.9548079557E+00   -3.9436676555E+00
   -3.9325899413E+00   -3.9215742872E+00   -3.9106201731E+00   -3.8997270846E+00
   -3.8888945134E+00   -3.8781219563E+00   -3.8674089162E+00   -3.8567549010E+00
   -3.8461594244E+00   -3.8356220051E+00   -3.8251421672E+00   -3.8147194402E+00
   -3.8043533583E+00   -3.7940434611E+00   -3.7837892930E+00   -3.7735904033E+00
   -3.7634463463E+00   -3.7533566809E+00   -3.7433209709E+00   -3.7333387845E+00
   -3.7234096947E+00   -3.7135332790E+00   -3.7037091194E+00   -3.6939368022E+00
   -3.6842159180E+00   -3.6745460621E+00   -3.6649268334E+00   -3.6553578356E+00
   -3.6458386762E+00   -3.6363689668E+00   -3.6269483232E+00   -3.6175763648E+00
   -3.6082527154E+00   -3.5989770023E+00   -3.5897488567E+00   -3.5805679139E+00
   -3.5714338124E+00   -3.5623461947E+00   -3.5533047069E+00   -3.5443089985E+00
   -3.5353587229E+00   -3.5264535367E+00   -3.5175931000E+00   -3.5087770763E+00
   -3.5000051326E+00   -3.4912769390E+00   -3.4825921691E+00   -3.4739504996E+00
   -3.4653516105E+00   -3.4567951849E+00   -3.4482809090E+00   -3.4398084721E+00
   -3.4313775665E+00   -3.4229878878E+00   -3.4146391341E+00   -3.4063310068E+00
   -3.3980632100E+00   -3.3898354508E+00   -3.3816474391E+00   -3.3734988875E+00
   -3.3653895114E+00   -3.3573190291E+00   -3.3492871614E+00   -3.3412936318E+00
   -3.3333381664E+00   -3.3254204941E+00   -3.3175403461E+00   -3.3096974563E+00
   -3.3018915612E+00   -3.2941223995E+00   -3.2863897126E+00   -3.2786932442E+00
   -3.2710327405E+00   -3.2634079499E+00   -3.2558186234E+00   -3.2482645140E+00
   -3.2407453771E+00   -3.2332609706E+00   -3.2258110542E+00   -3.2183953902E+00
   -3.2110137429E+00   -3.2036658788E+00   -3.1963515663E+00   -3.1890705764E+00
   -3.1818226818E+00   -3.1746076572E+00   -3.1674252798E+00   -3.1602753283E+00
   -3.1531575836E+00   -3.1460718287E+00   -3.1390178484E+00   -3.1319954294E+00
   -3.1250043604E+00   -3.1180444319E+00   -3.1111154362E+00   -3.1042171678E+00
   -3.0973494225E+00   -3.0905119983E+00   -3.0837046948E+00   -3.0769273134E+00
   -3.0701796573E+00   -3.0634615313E+00   -3.0567727420E+00   -3.0501130977E+00
   -3.0434824082E+00   -3.0368804852E+00   -3.0303071419E+00   -3.0237621931E+00
   -3.0172454551E+00   -3.0107567461E+00   -3.0042958855E+00   -2.9978626945E+00
   -2.9914569957E+00   -2.9850786132E+00   -2.9787273727E+00   -2.9724031013E+00
   -2.9661056276E+00   -2.9598347816E+00   -2.9535903948E+00   -2.9473723001E+00
   -2.9411803318E+00   -2.9350143256E+00   -2.9288741184E+00   -2.9227595489E+00
   -2.9166704566E+00   -2.9106066828E+00   -2.9045680698E+00   -2.8985544614E+00
   -2.8925657025E+00   -2.8866016395E+00   -2.8806621199E+00   -2.8747469925E+00
   -2.8688561075E+00   -2.8629893159E+00   -2.8571464705E+00   -2.8513274247E+00
   -2.8455320336E+00   -2.8397601532E+00   -2.8340116406E+00   -2.8282863544E+00
   -2.8225841539E+00   -2.8169048999E+00   -2.8112484541E+00   -2.8056146793E+00
   -2.8000034397E+00   -2.7944146002E+00   -2.7888480269E+00   -2.7833035872E+00
   -2.7777811491E+00   -2.7722805820E+00   -2.7668017563E+00   -2.7613445433E+00
   -2.7559088154E+00   -2.7504944459E+00   -2.7451013093E+00   -2.7397292807E+00
   -2.7343782366E+00   -2.7290480543E+00   -2.7237386120E+00   -2.7184497889E+00
   -2.7131814650E+00   -2.7079335215E+00   -2.7027058404E+00   -2.6974983044E+00
   -2.6923107974E+00   -2.6871432040E+00   -2.6819954099E+00   -2.6768673014E+00
   -2.6717587658E+00   -2.6666696912E+00   -2.6615999668E+00   -2.6565494823E+00