<UPF version="2.0.1">
  <PP_INFO>

 This pseudopotential file has been produced using the code
 ONCVPSP  (Optimized Norm-Conservinng Vanderbilt PSeudopotential)
 scalar-relativistic version 3.3.1 12/12/2017 by D. R. Hamann
 The code is available through a link at URL www.mat-simresearch.com.
 Documentation with the package provides a full discription of the
 input data below.


 While it is not required under the terms of the GNU GPL, it is
 suggested that you cite D. R. Hamann, Phys. Rev. B 88, 085117 (2013)
 in any publication using these pseudopotentials.

    <PP_INPUTFILE>
# ATOM AND REFERENCE CONFIGURATION
# atsym  z   nc   nv     iexc    psfile
  He  2.00    0    1       4      upf
#
#   n    l    f        energy (Ha)
    1    0    2.00
#
# PSEUDOPOTENTIAL AND OPTIMIZATION
# lmax
    0
#
#   l,   rc,      ep,       ncon, nbas, qcut
    0   1.99006  -0.57931    5    8   7.17231
#
# LOCAL POTENTIAL
# lloc, lpopt,  rc(5),   dvloc0
    4    5   0.89489      0.00000
#
# VANDERBILT-KLEINMAN-BYLANDER PROJECTORs
# l, nproj, debl
    0    2   1.34022
#
# MODEL CORE CHARGE
# icmod, fcfact, rcfact
    0   0.00000   0.00000
#
# LOG DERIVATIVE ANALYSIS
# epsh1, epsh2, depsh
   -5.00    3.00    0.02
#
# OUTPUT GRID
# rlmax, drl
    6.00    0.01
#
# TEST CONFIGURATIONS
# ncnf
    0
# nvcnf
#   n    l    f
    </PP_INPUTFILE>
  </PP_INFO>
  <!--                               -->
  <!-- END OF HUMAN READABLE SECTION -->
  <!--                               -->
    <PP_HEADER
       generated="Generated using ONCVPSP code by D. R. Hamann"
       author="anonymous"
       date="180627"
       comment=""
       element="He"
       pseudo_type="NC"
       relativistic="scalar"
       is_ultrasoft="F"
       is_paw="F"
       is_coulomb="F"
       has_so="F"
       has_wfc="F"
       has_gipaw="F"
       core_correction="F"
       functional="PBE"
       z_valence="    2.00"
       total_psenergy="  -5.57583765039E+00"
       rho_cutoff="   7.21000000000E+00"
       l_max="0"
       l_local="-1"
       mesh_size="   722"
       number_of_wfc="1"
       number_of_proj="2"/>
 <PP_MESH>
   <PP_R type="real"  size=" 722" columns="8">
    0.0000    0.0100    0.0200    0.0300    0.0400    0.0500    0.0600    0.0700
    0.0800    0.0900    0.1000    0.1100    0.1200    0.1300    0.1400    0.1500
    0.1600    0.1700    0.1800    0.1900    0.2000    0.2100    0.2200    0.2300
    0.2400    0.2500    0.2600    0.2700    0.2800    0.2900    0.3000    0.3100
    0.3200    0.3300    0.3400    0.3500    0.3600    0.3700    0.3800    0.3900
    0.4000    0.4100    0.4200    0.4300    0.4400    0.4500    0.4600    0.4700
    0.4800    0.4900    0.5000    0.5100    0.5200    0.5300    0.5400    0.5500
    0.5600    0.5700    0.5800    0.5900    0.6000    0.6100    0.6200    0.6300
    0.6400    0.6500    0.6600    0.6700    0.6800    0.6900    0.7000    0.7100
    0.7200    0.7300    0.7400    0.7500    0.7600    0.7700    0.7800    0.7900
    0.8000    0.8100    0.8200    0.8300    0.8400    0.8500    0.8600    0.8700
    0.8800    0.8900    0.9000    0.9100    0.9200    0.9300    0.9400    0.9500
    0.9600    0.9700    0.9800    0.9900    1.0000    1.0100    1.0200    1.0300
    1.0400    1.0500    1.0600    1.0700    1.0800    1.0900    1.1000    1.1100
    1.1200    1.1300    1.1400    1.1500    1.1600    1.1700    1.1800    1.1900
    1.2000    1.2100    1.2200    1.2300    1.2400    1.2500    1.2600    1.2700
    1.2800    1.2900    1.3000    1.3100    1.3200    1.3300    1.3400    1.3500
    1.3600    1.3700    1.3800    1.3900    1.4000    1.4100    1.4200    1.4300
    1.4400    1.4500    1.4600    1.4700    1.4800    1.4900    1.5000    1.5100
    1.5200    1.5300    1.5400    1.5500    1.5600    1.5700    1.5800    1.5900
    1.6000    1.6100    1.6200    1.6300    1.6400    1.6500    1.6600    1.6700
    1.6800    1.6900    1.7000    1.7100    1.7200    1.7300    1.7400    1.7500
    1.7600    1.7700    1.7800    1.7900    1.8000    1.8100    1.8200    1.8300
    1.8400    1.8500    1.8600    1.8700    1.8800    1.8900    1.9000    1.9100
    1.9200    1.9300    1.9400    1.9500    1.9600    1.9700    1.9800    1.9900
    2.0000    2.0100    2.0200    2.0300    2.0400    2.0500    2.0600    2.0700
    2.0800    2.0900    2.1000    2.1100    2.1200    2.1300    2.1400    2.1500
    2.1600    2.1700    2.1800    2.1900    2.2000    2.2100    2.2200    2.2300
    2.2400    2.2500    2.2600    2.2700    2.2800    2.2900    2.3000    2.3100
    2.3200    2.3300    2.3400    2.3500    2.3600    2.3700    2.3800    2.3900
    2.4000    2.4100    2.4200    2.4300    2.4400    2.4500    2.4600    2.4700
    2.4800    2.4900    2.5000    2.5100    2.5200    2.5300    2.5400    2.5500
    2.5600    2.5700    2.5800    2.5900    2.6000    2.6100    2.6200    2.6300
    2.6400    2.6500    2.6600    2.6700    2.6800    2.6900    2.7000    2.7100
    2.7200    2.7300    2.7400    2.7500    2.7600    2.7700    2.7800    2.7900
    2.8000    2.8100    2.8200    2.8300    2.8400    2.8500    2.8600    2.8700
    2.8800    2.8900    2.9000    2.9100    2.9200    2.9300    2.9400    2.9500
    2.9600    2.9700    2.9800    2.9900    3.0000    3.0100    3.0200    3.0300
    3.0400    3.0500    3.0600    3.0700    3.0800    3.0900    3.1000    3.1100
    3.1200    3.1300    3.1400    3.1500    3.1600    3.1700    3.1800    3.1900
    3.2000    3.2100    3.2200    3.2300    3.2400    3.2500    3.2600    3.2700
    3.2800    3.2900    3.3000    3.3100    3.3200    3.3300    3.3400    3.3500
    3.3600    3.3700    3.3800    3.3900    3.4000    3.4100    3.4200    3.4300
    3.4400    3.4500    3.4600    3.4700    3.4800    3.4900    3.5000    3.5100
    3.5200    3.5300    3.5400    3.5500    3.5600    3.5700    3.5800    3.5900
    3.6000    3.6100    3.6200    3.6300    3.6400    3.6500    3.6600    3.6700
    3.6800    3.6900    3.7000    3.7100    3.7200    3.7300    3.7400    3.7500
    3.7600    3.7700    3.7800    3.7900    3.8000    3.8100    3.8200    3.8300
    3.8400    3.8500    3.8600    3.8700    3.8800    3.8900    3.9000    3.9100
    3.9200    3.9300    3.9400    3.9500    3.9600    3.9700    3.9800    3.9900
    4.0000    4.0100    4.0200    4.0300    4.0400    4.0500    4.0600    4.0700
    4.0800    4.0900    4.1000    4.1100    4.1200    4.1300    4.1400    4.1500
    4.1600    4.1700    4.1800    4.1900    4.2000    4.2100    4.2200    4.2300
    4.2400    4.2500    4.2600    4.2700    4.2800    4.2900    4.3000    4.3100
    4.3200    4.3300    4.3400    4.3500    4.3600    4.3700    4.3800    4.3900
    4.4000    4.4100    4.4200    4.4300    4.4400    4.4500    4.4600    4.4700
    4.4800    4.4900    4.5000    4.5100    4.5200    4.5300    4.5400    4.5500
    4.5600    4.5700    4.5800    4.5900    4.6000    4.6100    4.6200    4.6300
    4.6400    4.6500    4.6600    4.6700    4.6800    4.6900    4.7000    4.7100
    4.7200    4.7300    4.7400    4.7500    4.7600    4.7700    4.7800    4.7900
    4.8000    4.8100    4.8200    4.8300    4.8400    4.8500    4.8600    4.8700
    4.8800    4.8900    4.9000    4.9100    4.9200    4.9300    4.9400    4.9500
    4.9600    4.9700    4.9800    4.9900    5.0000    5.0100    5.0200    5.0300
    5.0400    5.0500    5.0600    5.0700    5.0800    5.0900    5.1000    5.1100
    5.1200    5.1300    5.1400    5.1500    5.1600    5.1700    5.1800    5.1900
    5.2000    5.2100    5.2200    5.2300    5.2400    5.2500    5.2600    5.2700
    5.2800    5.2900    5.3000    5.3100    5.3200    5.3300    5.3400    5.3500
    5.3600    5.3700    5.3800    5.3900    5.4000    5.4100    5.4200    5.4300
    5.4400    5.4500    5.4600    5.4700    5.4800    5.4900    5.5000    5.5100
    5.5200    5.5300    5.5400    5.5500    5.5600    5.5700    5.5800    5.5900
    5.6000    5.6100    5.6200    5.6300    5.6400    5.6500    5.6600    5.6700
    5.6800    5.6900    5.7000    5.7100    5.7200    5.7300    5.7400    5.7500
    5.7600    5.7700    5.7800    5.7900    5.8000    5.8100    5.8200    5.8300
    5.8400    5.8500    5.8600    5.8700    5.8800    5.8900    5.9000    5.9100
    5.9200    5.9300    5.9400    5.9500    5.9600    5.9700    5.9800    5.9900
    6.0000    6.0100    6.0200    6.0300    6.0400    6.0500    6.0600    6.0700
    6.0800    6.0900    6.1000    6.1100    6.1200    6.1300    6.1400    6.1500
    6.1600    6.1700    6.1800    6.1900    6.2000    6.2100    6.2200    6.2300
    6.2400    6.2500    6.2600    6.2700    6.2800    6.2900    6.3000    6.3100
    6.3200    6.3300    6.3400    6.3500    6.3600    6.3700    6.3800    6.3900
    6.4000    6.4100    6.4200    6.4300    6.4400    6.4500    6.4600    6.4700
    6.4800    6.4900    6.5000    6.5100    6.5200    6.5300    6.5400    6.5500
    6.5600    6.5700    6.5800    6.5900    6.6000    6.6100    6.6200    6.6300
    6.6400    6.6500    6.6600    6.6700    6.6800    6.6900    6.7000    6.7100
    6.7200    6.7300    6.7400    6.7500    6.7600    6.7700    6.7800    6.7900
    6.8000    6.8100    6.8200    6.8300    6.8400    6.8500    6.8600    6.8700
    6.8800    6.8900    6.9000    6.9100    6.9200    6.9300    6.9400    6.9500
    6.9600    6.9700    6.9800    6.9900    7.0000    7.0100    7.0200    7.0300
    7.0400    7.0500    7.0600    7.0700    7.0800    7.0900    7.1000    7.1100
    7.1200    7.1300    7.1400    7.1500    7.1600    7.1700    7.1800    7.1900
    7.2000    7.2100
   </PP_R>
   <PP_RAB type="real"  size=" 722" columns="8">
    0.0100    0.0100    0.0100    0.0100    0.0100    0.0100    0.0100    0.0100
    0.0100    0.0100    0.0100    0.0100    0.0100    0.0100    0.0100    0.0100
    0.0100    0.0100    0.0100    0.0100    0.0100    0.0100    0.0100    0.0100
    0.0100    0.0100    0.0100    0.0100    0.0100    0.0100    0.0100    0.0100
    0.0100    0.0100    0.0100    0.0100    0.0100    0.0100    0.0100    0.0100
    0.0100    0.0100    0.0100    0.0100    0.0100    0.0100    0.0100    0.0100
    0.0100    0.0100    0.0100    0.0100    0.0100    0.0100    0.0100    0.0100
    0.0100    0.0100    0.0100    0.0100    0.0100    0.0100    0.0100    0.0100
    0.0100    0.0100    0.0100    0.0100    0.0100    0.0100    0.0100    0.0100
    0.0100    0.0100    0.0100    0.0100    0.0100    0.0100    0.0100    0.0100
    0.0100    0.0100    0.0100    0.0100    0.0100    0.0100    0.0100    0.0100
    0.0100    0.0100    0.0100    0.0100    0.0100    0.0100    0.0100    0.0100
    0.0100    0.0100    0.0100    0.0100    0.0100    0.0100    0.0100    0.0100
    0.0100    0.0100    0.0100    0.0100    0.0100    0.0100    0.0100    0.0100
    0.0100    0.0100    0.0100    0.0100    0.0100    0.0100    0.0100    0.0100
    0.0100    0.0100    0.0100    0.0100    0.0100    0.0100    0.0100    0.0100
    0.0100    0.0100    0.0100    0.0100    0.0100    0.0100    0.0100    0.0100
    0.0100    0.0100    0.0100    0.0100    0.0100    0.0100    0.0100    0.0100
    0.0100    0.0100    0.0100    0.0100    0.0100    0.0100    0.0100    0.0100
    0.0100    0.0100    0.0100    0.0100    0.0100    0.0100    0.0100    0.0100
    0.0100    0.0100    0.0100    0.0100    0.0100    0.0100    0.0100    0.0100
    0.0100    0.0100    0.0100    0.0100    0.0100    0.0100    0.0100    0.0100
    0.0100    0.0100    0.0100    0.0100    0.0100    0.0100    0.0100    0.0100
    0.0100    0.0100    0.0100    0.0100    0.0100    0.0100    0.0100    0.0100
    0.0100    0.0100    0.0100    0.0100    0.0100    0.0100    0.0100    0.0100
    0.0100    0.0100    0.0100    0.0100    0.0100    0.0100    0.0100    0.0100
    0.0100    0.0100    0.0100    0.0100    0.0100    0.0100    0.0100    0.0100
    0.0100    0.0100    0.0100    0.0100    0.0100    0.0100    0.0100    0.0100
    0.0100    0.0100    0.0100    0.0100    0.0100    0.0100    0.0100    0.0100
    0.0100    0.0100    0.0100    0.0100    0.0100    0.0100    0.0100    0.0100
    0.0100    0.0100    0.0100    0.0100    0.0100    0.0100    0.0100    0.0100
    0.0100    0.0100    0.0100    0.0100    0.0100    0.0100    0.0100    0.0100
    0.0100    0.0100    0.0100    0.0100    0.0100    0.0100    0.0100    0.0100
    0.0100    0.0100    0.0100    0.0100    0.0100    0.0100    0.0100    0.0100
    0.0100    0.0100    0.0100    0.0100    0.0100    0.0100    0.0100    0.0100
    0.0100    0.0100    0.0100    0.0100    0.0100    0.0100    0.0100    0.0100
    0.0100    0.0100    0.0100    0.0100    0.0100    0.0100    0.0100    0.0100
    0.0100    0.0100    0.0100    0.0100    0.0100    0.0100    0.0100    0.0100
    0.0100    0.0100    0.0100    0.0100    0.0100    0.0100    0.0100    0.0100
    0.0100    0.0100    0.0100    0.0100    0.0100    0.0100    0.0100    0.0100
    0.0100    0.0100    0.0100    0.0100    0.0100    0.0100    0.0100    0.0100
    0.0100    0.0100    0.0100    0.0100    0.0100    0.0100    0.0100    0.0100
    0.0100    0.0100    0.0100    0.0100    0.0100    0.0100    0.0100    0.0100
    0.0100    0.0100    0.0100    0.0100    0.0100    0.0100    0.0100    0.0100
    0.0100    0.0100    0.0100    0.0100    0.0100    0.0100    0.0100    0.0100
    0.0100    0.0100    0.0100    0.0100    0.0100    0.0100    0.0100    0.0100
    0.0100    0.0100    0.0100    0.0100    0.0100    0.0100    0.0100    0.0100
    0.0100    0.0100    0.0100    0.0100    0.0100    0.0100    0.0100    0.0100
    0.0100    0.0100    0.0100    0.0100    0.0100    0.0100    0.0100    0.0100
    0.0100    0.0100    0.0100    0.0100    0.0100    0.0100    0.0100    0.0100
    0.0100    0.0100    0.0100    0.0100    0.0100    0.0100    0.0100    0.0100
    0.0100    0.0100    0.0100    0.0100    0.0100    0.0100    0.0100    0.0100
    0.0100    0.0100    0.0100    0.0100    0.0100    0.0100    0.0100    0.0100
    0.0100    0.0100    0.0100    0.0100    0.0100    0.0100    0.0100    0.0100
    0.0100    0.0100    0.0100    0.0100    0.0100    0.0100    0.0100    0.0100
    0.0100    0.0100    0.0100    0.0100    0.0100    0.0100    0.0100    0.0100
    0.0100    0.0100    0.0100    0.0100    0.0100    0.0100    0.0100    0.0100
    0.0100    0.0100    0.0100    0.0100    0.0100    0.0100    0.0100    0.0100
    0.0100    0.0100    0.0100    0.0100    0.0100    0.0100    0.0100    0.0100
    0.0100    0.0100    0.0100    0.0100    0.0100    0.0100    0.0100    0.0100
    0.0100    0.0100    0.0100    0.0100    0.0100    0.0100    0.0100    0.0100
    0.0100    0.0100    0.0100    0.0100    0.0100    0.0100    0.0100    0.0100
    0.0100    0.0100    0.0100    0.0100    0.0100    0.0100    0.0100    0.0100
    0.0100    0.0100    0.0100    0.0100    0.0100    0.0100    0.0100    0.0100
    0.0100    0.0100    0.0100    0.0100    0.0100    0.0100    0.0100    0.0100
    0.0100    0.0100    0.0100    0.0100    0.0100    0.0100    0.0100    0.0100
    0.0100    0.0100    0.0100    0.0100    0.0100    0.0100    0.0100    0.0100
    0.0100    0.0100    0.0100    0.0100    0.0100    0.0100    0.0100    0.0100
    0.0100    0.0100    0.0100    0.0100    0.0100    0.0100    0.0100    0.0100
    0.0100    0.0100    0.0100    0.0100    0.0100    0.0100    0.0100    0.0100
    0.0100    0.0100    0.0100    0.0100    0.0100    0.0100    0.0100    0.0100
    0.0100    0.0100    0.0100    0.0100    0.0100    0.0100    0.0100    0.0100
    0.0100    0.0100    0.0100    0.0100    0.0100    0.0100    0.0100    0.0100
    0.0100    0.0100    0.0100    0.0100    0.0100    0.0100    0.0100    0.0100
    0.0100    0.0100    0.0100    0.0100    0.0100    0.0100    0.0100    0.0100
    0.0100    0.0100    0.0100    0.0100    0.0100    0.0100    0.0100    0.0100
    0.0100    0.0100    0.0100    0.0100    0.0100    0.0100    0.0100    0.0100
    0.0100    0.0100    0.0100    0.0100    0.0100    0.0100    0.0100    0.0100
    0.0100    0.0100    0.0100    0.0100    0.0100    0.0100    0.0100    0.0100
    0.0100    0.0100    0.0100    0.0100    0.0100    0.0100    0.0100    0.0100
    0.0100    0.0100    0.0100    0.0100    0.0100    0.0100    0.0100    0.0100
    0.0100    0.0100    0.0100    0.0100    0.0100    0.0100    0.0100    0.0100
    0.0100    0.0100    0.0100    0.0100    0.0100    0.0100    0.0100    0.0100
    0.0100    0.0100    0.0100    0.0100    0.0100    0.0100    0.0100    0.0100
    0.0100    0.0100    0.0100    0.0100    0.0100    0.0100    0.0100    0.0100
    0.0100    0.0100    0.0100    0.0100    0.0100    0.0100    0.0100    0.0100
    0.0100    0.0100    0.0100    0.0100    0.0100    0.0100    0.0100    0.0100
    0.0100    0.0100    0.0100    0.0100    0.0100    0.0100    0.0100    0.0100
    0.0100    0.0100    0.0100    0.0100    0.0100    0.0100    0.0100    0.0100
    0.0100    0.0100    0.0100    0.0100    0.0100    0.0100    0.0100    0.0100
    0.0100    0.0100
   </PP_RAB>
 </PP_MESH>
  <PP_LOCAL type="real"  size=" 722" columns="4">
   -9.6978749479E+00   -9.6964879518E+00   -9.6923289825E+00   -9.6854040538E+00
   -9.6757231589E+00   -9.6633002219E+00   -9.6481530319E+00   -9.6303031605E+00
   -9.6097758633E+00   -9.5865999680E+00   -9.5608077496E+00   -9.5324347948E+00
   -9.5015198585E+00   -9.4681047124E+00   -9.4322339895E+00   -9.3939550247E+00
   -9.3533176952E+00   -9.3103742599E+00   -9.2651792009E+00   -9.2177890686E+00
   -9.1682623297E+00   -9.1166592213E+00   -9.0630416097E+00   -9.0074728564E+00
   -8.9500176892E+00   -8.8907420816E+00   -8.8297131375E+00   -8.7669989834E+00
   -8.7026686660E+00   -8.6367920566E+00   -8.5694397603E+00   -8.5006830306E+00
   -8.4305936881E+00   -8.3592440437E+00   -8.2867068242E+00   -8.2130551011E+00
   -8.1383622221E+00   -8.0627017426E+00   -7.9861473601E+00   -7.9087728479E+00
   -7.8306519891E+00   -7.7518585108E+00   -7.6724660170E+00   -7.5925479205E+00
   -7.5121773742E+00   -7.4314271996E+00   -7.3503698147E+00   -7.2690771588E+00
   -7.1876206165E+00   -7.1060709377E+00   -7.0244981574E+00   -6.9429715111E+00
   -6.8615593492E+00   -6.7803290488E+00   -6.6993469223E+00   -6.6186781249E+00
   -6.5383865589E+00   -6.4585347767E+00   -6.3791838808E+00   -6.3003934226E+00
   -6.2222212992E+00   -6.1447236488E+00   -6.0679547440E+00   -5.9919668843E+00
   -5.9168102882E+00   -5.8425329827E+00   -5.7691806942E+00   -5.6967967375E+00
   -5.6254219054E+00   -5.5550943584E+00   -5.4858495143E+00   -5.4177199389E+00
   -5.3507352372E+00   -5.2849219458E+00   -5.2203034265E+00   -5.1568997608E+00
   -5.0947276468E+00   -5.0338002969E+00   -4.9741273371E+00   -4.9157147084E+00
   -4.8585645687E+00   -4.8026751971E+00   -4.7480408984E+00   -4.6946519084E+00
   -4.6424942999E+00   -4.5915498886E+00   -4.5417961383E+00   -4.4932060641E+00
   -4.4457481342E+00   -4.3993862110E+00   -4.3540792811E+00   -4.3097831903E+00
   -4.2664541991E+00   -4.2240507196E+00   -4.1825330808E+00   -4.1418635319E+00
   -4.1020061975E+00   -4.0629270326E+00   -4.0245937788E+00   -3.9869759189E+00
   -3.9500446303E+00   -3.9137727358E+00   -3.8781346536E+00   -3.8431063441E+00
   -3.8086652551E+00   -3.7747902650E+00   -3.7414616237E+00   -3.7086608925E+00
   -3.6763708819E+00   -3.6445755890E+00   -3.6132601337E+00   -3.5824106946E+00
   -3.5520144454E+00   -3.5220594905E+00   -3.4925348033E+00   -3.4634301631E+00
   -3.4347360949E+00   -3.4064438123E+00   -3.3785451589E+00   -3.3510325541E+00
   -3.3238989416E+00   -3.2971377391E+00   -3.2707427917E+00   -3.2447083271E+00
   -3.2190289146E+00   -3.1936994259E+00   -3.1687149992E+00   -3.1440710058E+00
   -3.1197630196E+00   -3.0957867884E+00   -3.0721382083E+00   -3.0488133002E+00
   -3.0258081884E+00   -3.0031190808E+00   -2.9807422515E+00   -2.9586740250E+00
   -2.9369107611E+00   -2.9154488429E+00   -2.8942846637E+00   -2.8734146176E+00
   -2.8528350886E+00   -2.8325424430E+00   -2.8125330205E+00   -2.7928031278E+00
   -2.7733490320E+00   -2.7541669548E+00   -2.7352530679E+00   -2.7166034885E+00
   -2.6982142764E+00   -2.6800814307E+00   -2.6622008887E+00   -2.6445685246E+00
   -2.6271801500E+00   -2.6100315145E+00   -2.5931183086E+00   -2.5764361663E+00
   -2.5599806700E+00   -2.5437473560E+00   -2.5277317215E+00   -2.5119292320E+00
   -2.4963353308E+00   -2.4809454490E+00   -2.4657550162E+00   -2.4507594726E+00
   -2.4359542813E+00   -2.4213349416E+00   -2.4068970018E+00   -2.3926360734E+00
   -2.3785478441E+00   -2.3646280909E+00   -2.3508726935E+00   -2.3372776456E+00
   -2.3238390668E+00   -2.3105532122E+00   -2.2974164817E+00   -2.2844254275E+00
   -2.2715767602E+00   -2.2588673533E+00   -2.2462942461E+00   -2.2338546446E+00
   -2.2215459215E+00   -2.2093656134E+00   -2.1973114173E+00   -2.1853811851E+00
   -2.1735729164E+00   -2.1618847506E+00   -2.1503149570E+00   -2.1388619247E+00
   -2.1275241508E+00   -2.1163002282E+00   -2.1051888329E+00   -2.0941887109E+00
   -2.0832986646E+00   -2.0725175397E+00   -2.0618442118E+00   -2.0512775732E+00
   -2.0408165217E+00   -2.0304599470E+00   -2.0202067208E+00   -2.0100556869E+00
   -2.0000056461E+00   -1.9900553496E+00   -1.9802034992E+00   -1.9704487306E+00
   -1.9607896344E+00   -1.9512247933E+00   -1.9417528159E+00   -1.9323723309E+00
   -1.9230820211E+00   -1.9138806094E+00   -1.9047668415E+00   -1.8957394656E+00
   -1.8867972540E+00   -1.8779390069E+00   -1.8691635482E+00   -1.8604697233E+00
   -1.8518563983E+00   -1.8433224601E+00   -1.8348668161E+00   -1.8264883940E+00
   -1.8181861407E+00   -1.8099590221E+00   -1.8018060230E+00   -1.7937261462E+00
   -1.7857184123E+00   -1.7777818595E+00   -1.7699155429E+00   -1.7621185342E+00
   -1.7543899214E+00   -1.7467288085E+00   -1.7391343151E+00   -1.7316055759E+00
   -1.7241417407E+00   -1.7167419738E+00   -1.7094054538E+00   -1.7021313732E+00
   -1.6949189383E+00   -1.6877673687E+00   -1.6806758973E+00   -1.6736437696E+00
   -1.6666702438E+00   -1.6597545905E+00   -1.6528960921E+00   -1.6460940430E+00
   -1.6393477492E+00   -1.6326565279E+00   -1.6260197075E+00   -1.6194366272E+00
   -1.6129066369E+00   -1.6064290970E+00   -1.6000033780E+00   -1.5936288606E+00
   -1.5873049351E+00   -1.5810310017E+00   -1.5748064699E+00   -1.5686307584E+00
   -1.5625032951E+00   -1.5564235168E+00   -1.5503908691E+00   -1.5444048059E+00
   -1.5384647897E+00   -1.5325702913E+00   -1.5267207894E+00   -1.5209157708E+00
   -1.5151547299E+00   -1.5094371688E+00   -1.5037625972E+00   -1.4981305321E+00
   -1.4925404975E+00   -1.4869920247E+00   -1.4814846520E+00   -1.4760179242E+00
   -1.4705913932E+00   -1.4652046172E+00   -1.4598571608E+00   -1.4545485951E+00
   -1.4492784975E+00   -1.4440464512E+00   -1.4388520457E+00   -1.4336948761E+00
   -1.4285745435E+00   -1.4234906546E+00   -1.4184428217E+00   -1.4134306625E+00
   -1.4084538003E+00   -1.4035118635E+00   -1.3986044857E+00   -1.3937313056E+00
   -1.3888919671E+00   -1.3840861187E+00   -1.3793134141E+00   -1.3745735116E+00
   -1.3698660741E+00   -1.3651907692E+00   -1.3605472691E+00   -1.3559352503E+00
   -1.3513543937E+00   -1.3468043845E+00   -1.3422849122E+00   -1.3377956704E+00
   -1.3333363568E+00   -1.3289066731E+00   -1.3245063249E+00   -1.3201350219E+00
   -1.3157924773E+00   -1.3114784082E+00   -1.3071925356E+00   -1.3029345839E+00
   -1.2987042811E+00   -1.2945013587E+00   -1.2903255518E+00   -1.2861765989E+00
   -1.2820542417E+00   -1.2779582253E+00   -1.2738882980E+00   -1.2698442114E+00
   -1.2658257201E+00   -1.2618325819E+00   -1.2578645577E+00   -1.2539214112E+00
   -1.2500029093E+00   -1.2461088215E+00   -1.2422389204E+00   -1.2383929815E+00
   -1.2345707827E+00   -1.2307721051E+00   -1.2269967320E+00   -1.2232444498E+00
   -1.2195150472E+00   -1.2158083155E+00   -1.2121240488E+00   -1.2084620433E+00
   -1.2048220980E+00   -1.2012040141E+00   -1.1976075951E+00   -1.1940326472E+00
   -1.1904789786E+00   -1.1869463999E+00   -1.1834347239E+00   -1.1799437655E+00
   -1.1764733421E+00   -1.1730232729E+00   -1.1695933795E+00   -1.1661834853E+00
   -1.1627934159E+00   -1.1594229989E+00   -1.1560720640E+00   -1.1527404427E+00
   -1.1494279685E+00   -1.1461344769E+00   -1.1428598050E+00   -1.1396037922E+00
   -1.1363662793E+00   -1.1331471091E+00   -1.1299461262E+00   -1.1267631769E+00
   -1.1235981092E+00   -1.1204507729E+00   -1.1173210193E+00   -1.1142087016E+00
   -1.1111136744E+00   -1.1080357941E+00   -1.1049749185E+00   -1.1019309072E+00
   -1.0989036211E+00   -1.0958929227E+00   -1.0928986762E+00   -1.0899207469E+00
   -1.0869590020E+00   -1.0840133098E+00   -1.0810835402E+00   -1.0781695644E+00
   -1.0752712550E+00   -1.0723884861E+00   -1.0695211329E+00   -1.0666690723E+00
   -1.0638321820E+00   -1.0610103416E+00   -1.0582034314E+00   -1.0554113333E+00
   -1.0526339304E+00   -1.0498711069E+00   -1.0471227485E+00   -1.0443887417E+00
   -1.0416689744E+00   -1.0389633358E+00   -1.0362717159E+00   -1.0335940061E+00
   -1.0309300990E+00   -1.0282798879E+00   -1.0256432676E+00   -1.0230201338E+00
   -1.0204103832E+00   -1.0178139138E+00   -1.0152306244E+00   -1.0126604148E+00
   -1.0101031861E+00   -1.0075588401E+00   -1.0050272796E+00   -1.0025084087E+00
   -1.0000021321E+00   -9.9750835553E-01   -9.9502698579E-01   -9.9255793050E-01
   -9.9010109821E-01   -9.8765639839E-01   -9.8522374138E-01   -9.8280303842E-01
   -9.8039420161E-01   -9.7799714393E-01   -9.7561177917E-01   -9.7323802199E-01
   -9.7087578787E-01   -9.6852499311E-01   -9.6618555481E-01   -9.6385739089E-01
   -9.6154042003E-01   -9.5923456172E-01   -9.5693973619E-01   -9.5465586446E-01
   -9.5238286828E-01   -9.5012067016E-01   -9.4786919334E-01   -9.4562836177E-01
   -9.4339810015E-01   -9.4117833385E-01   -9.3896898897E-01   -9.3676999229E-01
   -9.3458127127E-01   -9.3240275407E-01   -9.3023436949E-01   -9.2807604700E-01
   -9.2592771674E-01   -9.2378930946E-01   -9.2166075658E-01   -9.1954199013E-01
   -9.1743294279E-01   -9.1533354783E-01   -9.1324373913E-01   -9.1116345119E-01
   -9.0909261910E-01   -9.0703117853E-01   -9.0497906573E-01   -9.0293621755E-01
   -9.0090257137E-01   -8.9887806517E-01   -8.9686263747E-01   -8.9485622734E-01
   -8.9285877439E-01   -8.9087021878E-01   -8.8889050119E-01   -8.8691956283E-01
   -8.8495734544E-01   -8.8300379125E-01   -8.8105884303E-01   -8.7912244403E-01
   -8.7719453801E-01   -8.7527506921E-01   -8.7336398237E-01   -8.7146122271E-01
   -8.6956673591E-01   -8.6768046815E-01   -8.6580236606E-01   -8.6393237672E-01
   -8.6207044767E-01   -8.6021652693E-01   -8.5837056293E-01   -8.5653250457E-01
   -8.5470230116E-01   -8.5287990245E-01   -8.5106525864E-01   -8.4925832033E-01
   -8.4745903854E-01   -8.4566736472E-01   -8.4388325070E-01   -8.4210664876E-01
   -8.4033751153E-01   -8.3857579207E-01   -8.3682144383E-01   -8.3507442064E-01
   -8.3333467673E-01   -8.3160216668E-01   -8.2987684548E-01   -8.2815866848E-01
   -8.2644759138E-01   -8.2474357029E-01   -8.2304656164E-01   -8.2135652223E-01
   -8.1967340922E-01   -8.1799718011E-01   -8.1632779277E-01   -8.1466520539E-01
   -8.1300937650E-01   -8.1136026498E-01   -8.0971783003E-01   -8.0808203120E-01
   -8.0645282834E-01   -8.0483018163E-01   -8.0321405160E-01   -8.0160439904E-01
   -8.0000118511E-01   -7.9840437125E-01   -7.9681391921E-01   -7.9522979104E-01
   -7.9365194910E-01   -7.9208035606E-01   -7.9051497486E-01   -7.8895576875E-01
   -7.8740270125E-01   -7.8585573619E-01   -7.8431483768E-01   -7.8277997009E-01
   -7.8125109809E-01   -7.7972818661E-01   -7.7821120088E-01   -7.7670010636E-01
   -7.7519486881E-01   -7.7369545425E-01   -7.7220182894E-01   -7.7071395942E-01
   -7.6923181250E-01   -7.6775535521E-01   -7.6628455486E-01   -7.6481937900E-01
   -7.6335979542E-01   -7.6190577218E-01   -7.6045727755E-01   -7.5901428007E-01
   -7.5757674851E-01   -7.5614465186E-01   -7.5471795936E-01   -7.5329664048E-01
   -7.5188066492E-01   -7.5047000261E-01   -7.4906462368E-01   -7.4766449852E-01
   -7.4626959773E-01   -7.4487989210E-01   -7.4349535269E-01   -7.4211595072E-01
   -7.4074165767E-01   -7.3937244519E-01   -7.3800828517E-01   -7.3664914970E-01
   -7.3529501106E-01   -7.3394584175E-01   -7.3260161447E-01   -7.3126230211E-01
   -7.2992787777E-01   -7.2859831472E-01   -7.2727358647E-01   -7.2595366668E-01
   -7.2463852923E-01   -7.2332814816E-01   -7.2202249772E-01   -7.2072155235E-01
   -7.1942528665E-01   -7.1813367541E-01   -7.1684669362E-01   -7.1556431643E-01
   -7.1428651918E-01   -7.1301327736E-01   -7.1174456667E-01   -7.1048036295E-01
   -7.0922064224E-01   -7.0796538073E-01   -7.0671455479E-01   -7.0546814095E-01
   -7.0422611590E-01   -7.0298845651E-01   -7.0175513980E-01   -7.0052614294E-01
   -6.9930144330E-01   -6.9808101836E-01   -6.9686484578E-01   -6.9565290338E-01
   -6.9444516914E-01   -6.9324162115E-01   -6.9204223771E-01   -6.9084699723E-01
   -6.8965587828E-01   -6.8846885958E-01   -6.8728591999E-01   -6.8610703853E-01
   -6.8493219435E-01   -6.8376136675E-01   -6.8259453515E-01   -6.8143167915E-01
   -6.8027277845E-01   -6.7911781291E-01   -6.7796676252E-01   -6.7681960740E-01
   -6.7567632783E-01   -6.7453690418E-01   -6.7340131699E-01   -6.7226954691E-01
   -6.7114157473E-01   -6.7001738137E-01   -6.6889694786E-01   -6.6778025538E-01
   -6.6666728521E-01   -6.6555801879E-01   -6.6445243765E-01   -6.6335052346E-01
   -6.6225225801E-01   -6.6115762319E-01   -6.6006660105E-01   -6.5897917372E-01
   -6.5789532346E-01   -6.5681503266E-01   -6.5573828381E-01   -6.5466505951E-01
   -6.5359534250E-01   -6.5252911560E-01   -6.5146636177E-01   -6.5040706406E-01
   -6.4935120564E-01   -6.4829876979E-01   -6.4724973989E-01   -6.4620409943E-01
   -6.4516183202E-01   -6.4412292136E-01   -6.4308735126E-01   -6.4205510564E-01
   -6.4102616851E-01   -6.4000052398E-01   -6.3897815629E-01   -6.3795904975E-01
   -6.3694318879E-01   -6.3593055791E-01   -6.3492114175E-01   -6.3391492502E-01
   -6.3291189253E-01   -6.3191202919E-01   -6.3091532000E-01   -6.2992175007E-01
   -6.2893130458E-01   -6.2794396882E-01   -6.2695972817E-01   -6.2597856810E-01
   -6.2500047416E-01   -6.2402543200E-01   -6.2305342737E-01   -6.2208444610E-01