<UPF version="2.0.1">
  <PP_INFO>

 This pseudopotential file has been produced using the code
 ONCVPSP  (Optimized Norm-Conservinng Vanderbilt PSeudopotential)
 scalar-relativistic version 3.2.2 08/07/2015 by D. R. Hamann
 The code is available through a link at URL www.mat-simresearch.com.
 Documentation with the package provides a full discription of the
 input data below.


 While it is not required under the terms of the GNU GPL, it is
 suggested that you cite D. R. Hamann, Phys. Rev. B 88, 085117 (2013)
 in any publication using these pseudopotentials.

    <PP_INPUTFILE>
# ATOM AND REFERENCE CONFIGURATION
# atsym  z   nc   nv     iexc    psfile
  Mn 25.00    3    4       4      upf
#
#   n    l    f        energy (Ha)
    1    0    2.00
    2    0    2.00
    2    1    6.00
    3    0    2.00
    3    1    6.00
    4    0    2.00
    3    2    5.00
#
# PSEUDOPOTENTIAL AND OPTIMIZATION
# lmax
    2
#
#   l,   rc,     ep,   ncon, nbas, qcut
    0    2.47   -3.16    5    8    6.17
    1    2.47   -2.01    5    8    7.86
    2    2.12   -0.25    5    8    7.59
#
# LOCAL POTENTIAL
# lloc, lpopt,  rc(5),   dvloc0
    4    5      1.93       0.00
#
# VANDERBILT-KLEINMAN-BYLANDER PROJECTORs
# l, nproj, debl
    0    2    2.9683
    1    2    1.9559
    2    2    1.0945
#
# MODEL CORE CHARGE
# icmod, fcfact
    1    0.38
#
# LOG DERIVATIVE ANALYSIS
# epsh1, epsh2, depsh
   -5.00    3.00    0.02
#
# OUTPUT GRID
# rlmax, drl
    6.00    0.01
#
# TEST CONFIGURATIONS
# ncnf
    0
# nvcnf
#   n    l    f
    </PP_INPUTFILE>
  </PP_INFO>
  <!--                               -->
  <!-- END OF HUMAN READABLE SECTION -->
  <!--                               -->
    <PP_HEADER
       generated="Generated using ONCVPSP code by D. R. Hamann"
       author="anonymous"
       date="221106"
       comment="Modified by Emil Briggs to output UPF format on log grid for RMG."
       element="Mn"
       pseudo_type="NC"
       relativistic="scalar"
       is_ultrasoft="F"
       is_paw="F"
       is_coulomb="F"
       has_so="F"
       has_wfc="F"
       has_gipaw="F"
       core_correction="T"
       functional="PBE"
       z_valence="   15.00"
       total_psenergy="  -1.98825145533E+02"
       rho_cutoff="   1.46300000000E+01"
       l_max="2"
       l_local="-1"
       mesh_size="  1226"
       number_of_wfc="4"
       number_of_proj="6"/>
 <PP_MESH>
   <PP_R type="real"  size="1226" columns="4">
  0.200000000000E-04  0.202400000000E-04  0.204828800000E-04  0.207286745600E-04
  0.209774186547E-04  0.212291476786E-04  0.214838974507E-04  0.217417042201E-04
  0.220026046708E-04  0.222666359268E-04  0.225338355579E-04  0.228042415846E-04
  0.230778924837E-04  0.233548271935E-04  0.236350851198E-04  0.239187061412E-04
  0.242057306149E-04  0.244961993823E-04  0.247901537749E-04  0.250876356202E-04
  0.253886872476E-04  0.256933514946E-04  0.260016717125E-04  0.263136917731E-04
  0.266294560743E-04  0.269490095472E-04  0.272723976618E-04  0.275996664338E-04
  0.279308624310E-04  0.282660327801E-04  0.286052251735E-04  0.289484878756E-04
  0.292958697301E-04  0.296474201668E-04  0.300031892088E-04  0.303632274793E-04
  0.307275862091E-04  0.310963172436E-04  0.314694730505E-04  0.318471067271E-04
  0.322292720079E-04  0.326160232720E-04  0.330074155512E-04  0.334035045378E-04
  0.338043465923E-04  0.342099987514E-04  0.346205187364E-04  0.350359649613E-04
  0.354563965408E-04  0.358818732993E-04  0.363124557789E-04  0.367482052482E-04
  0.371891837112E-04  0.376354539157E-04  0.380870793627E-04  0.385441243151E-04
  0.390066538068E-04  0.394747336525E-04  0.399484304564E-04  0.404278116218E-04
  0.409129453613E-04  0.414039007056E-04  0.419007475141E-04  0.424035564843E-04
  0.429123991621E-04  0.434273479520E-04  0.439484761275E-04  0.444758578410E-04
  0.450095681351E-04  0.455496829527E-04  0.460962791481E-04  0.466494344979E-04
  0.472092277119E-04  0.477757384444E-04  0.483490473058E-04  0.489292358734E-04
  0.495163867039E-04  0.501105833444E-04  0.507119103445E-04  0.513204532686E-04
  0.519362987078E-04  0.525595342923E-04  0.531902487038E-04  0.538285316883E-04
  0.544744740685E-04  0.551281677574E-04  0.557897057705E-04  0.564591822397E-04
  0.571366924266E-04  0.578223327357E-04  0.585162007285E-04  0.592183951373E-04
  0.599290158789E-04  0.606481640695E-04  0.613759420383E-04  0.621124533428E-04
  0.628578027829E-04  0.636120964163E-04  0.643754415733E-04  0.651479468721E-04
  0.659297222346E-04  0.667208789014E-04  0.675215294482E-04  0.683317878016E-04
  0.691517692552E-04  0.699815904863E-04  0.708213695721E-04  0.716712260070E-04
  0.725312807191E-04  0.734016560877E-04  0.742824759608E-04  0.751738656723E-04
  0.760759520604E-04  0.769888634851E-04  0.779127298469E-04  0.788476826051E-04
  0.797938547963E-04  0.807513810539E-04  0.817203976265E-04  0.827010423981E-04
  0.836934549068E-04  0.846977763657E-04  0.857141496821E-04  0.867427194783E-04
  0.877836321120E-04  0.888370356974E-04  0.899030801257E-04  0.909819170872E-04
  0.920737000923E-04  0.931785844934E-04  0.942967275073E-04  0.954282882374E-04
  0.965734276963E-04  0.977323088286E-04  0.989050965346E-04  0.100091957693E-03
  0.101293061185E-03  0.102508577920E-03  0.103738680855E-03  0.104983545025E-03
  0.106243347565E-03  0.107518267736E-03  0.108808486949E-03  0.110114188792E-03
  0.111435559058E-03  0.112772785766E-03  0.114126059195E-03  0.115495571906E-03
  0.116881518769E-03  0.118284096994E-03  0.119703506158E-03  0.121139948232E-03
  0.122593627611E-03  0.124064751142E-03  0.125553528156E-03  0.127060170493E-03
  0.128584892539E-03  0.130127911250E-03  0.131689446185E-03  0.133269719539E-03
  0.134868956173E-03  0.136487383648E-03  0.138125232251E-03  0.139782735038E-03
  0.141460127859E-03  0.143157649393E-03  0.144875541186E-03  0.146614047680E-03
  0.148373416252E-03  0.150153897247E-03  0.151955744014E-03  0.153779212942E-03
  0.155624563498E-03  0.157492058260E-03  0.159381962959E-03  0.161294546514E-03
  0.163230081072E-03  0.165188842045E-03  0.167171108150E-03  0.169177161448E-03
  0.171207287385E-03  0.173261774834E-03  0.175340916132E-03  0.177445007125E-03
  0.179574347211E-03  0.181729239377E-03  0.183909990250E-03  0.186116910133E-03
  0.188350313054E-03  0.190610516811E-03  0.192897843013E-03  0.195212617129E-03
  0.197555168535E-03  0.199925830557E-03  0.202324940524E-03  0.204752839810E-03
  0.207209873888E-03  0.209696392374E-03  0.212212749083E-03  0.214759302072E-03
  0.217336413697E-03  0.219944450661E-03  0.222583784069E-03  0.225254789478E-03
  0.227957846951E-03  0.230693341115E-03  0.233461661208E-03  0.236263201143E-03
  0.239098359556E-03  0.241967539871E-03  0.244871150350E-03  0.247809604154E-03
  0.250783319404E-03  0.253792719236E-03  0.256838231867E-03  0.259920290650E-03
  0.263039334138E-03  0.266195806147E-03  0.269390155821E-03  0.272622837691E-03
  0.275894311743E-03  0.279205043484E-03  0.282555504006E-03  0.285946170054E-03
  0.289377524095E-03  0.292850054384E-03  0.296364255036E-03  0.299920626097E-03
  0.303519673610E-03  0.307161909693E-03  0.310847852609E-03  0.314578026841E-03
  0.318352963163E-03  0.322173198721E-03  0.326039277106E-03  0.329951748431E-03
  0.333911169412E-03  0.337918103445E-03  0.341973120686E-03  0.346076798134E-03
  0.350229719712E-03  0.354432476349E-03  0.358685666065E-03  0.362989894058E-03
  0.367345772786E-03  0.371753922060E-03  0.376214969124E-03  0.380729548754E-03
  0.385298303339E-03  0.389921882979E-03  0.394600945575E-03  0.399336156922E-03
  0.404128190805E-03  0.408977729094E-03  0.413885461844E-03  0.418852087386E-03
  0.423878312434E-03  0.428964852183E-03  0.434112430410E-03  0.439321779575E-03
  0.444593640929E-03  0.449928764621E-03  0.455327909796E-03  0.460791844714E-03
  0.466321346850E-03  0.471917203012E-03  0.477580209449E-03  0.483311171962E-03
  0.489110906025E-03  0.494980236898E-03  0.500919999741E-03  0.506931039737E-03
  0.513014212214E-03  0.519170382761E-03  0.525400427354E-03  0.531705232482E-03
  0.538085695272E-03  0.544542723615E-03  0.551077236299E-03  0.557690163134E-03
  0.564382445092E-03  0.571155034433E-03  0.578008894846E-03  0.584945001584E-03
  0.591964341603E-03  0.599067913703E-03  0.606256728667E-03  0.613531809411E-03
  0.620894191124E-03  0.628344921417E-03  0.635885060474E-03  0.643515681200E-03
  0.651237869375E-03  0.659052723807E-03  0.666961356493E-03  0.674964892771E-03
  0.683064471484E-03  0.691261245142E-03  0.699556380083E-03  0.707951056644E-03
  0.716446469324E-03  0.725043826956E-03  0.733744352879E-03  0.742549285114E-03
  0.751459876535E-03  0.760477395054E-03  0.769603123794E-03  0.778838361280E-03
  0.788184421615E-03  0.797642634675E-03  0.807214346291E-03  0.816900918446E-03
  0.826703729468E-03  0.836624174221E-03  0.846663664312E-03  0.856823628284E-03
  0.867105511823E-03  0.877510777965E-03  0.888040907301E-03  0.898697398188E-03
  0.909481766966E-03  0.920395548170E-03  0.931440294748E-03  0.942617578285E-03
  0.953928989224E-03  0.965376137095E-03  0.976960650740E-03  0.988684178549E-03
  0.100054838869E-02  0.101255496936E-02  0.102470562899E-02  0.103700209654E-02
  0.104944612169E-02  0.106203947515E-02  0.107478394886E-02  0.108768135624E-02
  0.110073353252E-02  0.111394233491E-02  0.112730964293E-02  0.114083735864E-02
  0.115452740695E-02  0.116838173583E-02  0.118240231666E-02  0.119659114446E-02
  0.121095023819E-02  0.122548164105E-02  0.124018742074E-02  0.125506966979E-02
  0.127013050583E-02  0.128537207190E-02  0.130079653676E-02  0.131640609520E-02
  0.133220296835E-02  0.134818940397E-02  0.136436767681E-02  0.138074008894E-02
  0.139730897000E-02  0.141407667764E-02  0.143104559777E-02  0.144821814495E-02
  0.146559676269E-02  0.148318392384E-02  0.150098213093E-02  0.151899391650E-02
  0.153722184350E-02  0.155566850562E-02  0.157433652768E-02  0.159322856602E-02
  0.161234730881E-02  0.163169547651E-02  0.165127582223E-02  0.167109113210E-02
  0.169114422568E-02  0.171143795639E-02  0.173197521187E-02  0.175275891441E-02
  0.177379202138E-02  0.179507752564E-02  0.181661845595E-02  0.183841787742E-02
  0.186047889195E-02  0.188280463865E-02  0.190539829432E-02  0.192826307385E-02
  0.195140223073E-02  0.197481905750E-02  0.199851688619E-02  0.202249908883E-02
  0.204676907789E-02  0.207133030683E-02  0.209618627051E-02  0.212134050576E-02
  0.214679659183E-02  0.217255815093E-02  0.219862884874E-02  0.222501239492E-02
  0.225171254366E-02  0.227873309419E-02  0.230607789132E-02  0.233375082601E-02
  0.236175583593E-02  0.239009690596E-02  0.241877806883E-02  0.244780340565E-02
  0.247717704652E-02  0.250690317108E-02  0.253698600913E-02  0.256742984124E-02
  0.259823899934E-02  0.262941786733E-02  0.266097088174E-02  0.269290253232E-02
  0.272521736271E-02  0.275791997106E-02  0.279101501071E-02  0.282450719084E-02
  0.285840127713E-02  0.289270209246E-02  0.292741451756E-02  0.296254349178E-02
  0.299809401368E-02  0.303407114184E-02  0.307047999554E-02  0.310732575549E-02
  0.314461366456E-02  0.318234902853E-02  0.322053721687E-02  0.325918366347E-02
  0.329829386744E-02  0.333787339385E-02  0.337792787457E-02  0.341846300907E-02
  0.345948456518E-02  0.350099837996E-02  0.354301036052E-02  0.358552648484E-02
  0.362855280266E-02  0.367209543629E-02  0.371616058153E-02  0.376075450851E-02
  0.380588356261E-02  0.385155416536E-02  0.389777281535E-02  0.394454608913E-02
  0.399188064220E-02  0.403978320991E-02  0.408826060842E-02  0.413731973573E-02
  0.418696757255E-02  0.423721118342E-02  0.428805771763E-02  0.433951441024E-02
  0.439158858316E-02  0.444428764616E-02  0.449761909791E-02  0.455159052709E-02
  0.460620961341E-02  0.466148412877E-02  0.471742193832E-02  0.477403100158E-02
  0.483131937360E-02  0.488929520608E-02  0.494796674855E-02  0.500734234954E-02
  0.506743045773E-02  0.512823962322E-02  0.518977849870E-02  0.525205584069E-02
  0.531508051077E-02  0.537886147690E-02  0.544340781463E-02  0.550872870840E-02
  0.557483345290E-02  0.564173145434E-02  0.570943223179E-02  0.577794541857E-02
  0.584728076359E-02  0.591744813276E-02  0.598845751035E-02  0.606031900047E-02
  0.613304282848E-02  0.620663934242E-02  0.628111901453E-02  0.635649244270E-02
  0.643277035202E-02  0.650996359624E-02  0.658808315940E-02  0.666714015731E-02
  0.674714583920E-02  0.682811158927E-02  0.691004892834E-02  0.699296951548E-02
  0.707688514966E-02  0.716180777146E-02  0.724774946472E-02  0.733472245829E-02
  0.742273912779E-02  0.751181199733E-02  0.760195374130E-02  0.769317718619E-02
  0.778549531243E-02  0.787892125617E-02  0.797346831125E-02  0.806914993098E-02
  0.816597973016E-02  0.826397148692E-02  0.836313914476E-02  0.846349681450E-02
  0.856505877627E-02  0.866783948159E-02  0.877185355537E-02  0.887711579803E-02
  0.898364118761E-02  0.909144488186E-02  0.920054222044E-02  0.931094872708E-02
  0.942268011181E-02  0.953575227315E-02  0.965018130043E-02  0.976598347603E-02
  0.988317527775E-02  0.100017733811E-01  0.101217946617E-01  0.102432561976E-01
  0.103661752720E-01  0.104905693752E-01  0.106164562077E-01  0.107438536822E-01
  0.108727799264E-01  0.110032532855E-01  0.111352923250E-01  0.112689158329E-01
  0.114041428228E-01  0.115409925367E-01  0.116794844472E-01  0.118196382605E-01
  0.119614739197E-01  0.121050116067E-01  0.122502717460E-01  0.123972750069E-01
  0.125460423070E-01  0.126965948147E-01  0.128489539525E-01  0.130031413999E-01
  0.131591790967E-01  0.133170892459E-01  0.134768943168E-01  0.136386170486E-01
  0.138022804532E-01  0.139679078186E-01  0.141355227125E-01  0.143051489850E-01
  0.144768107728E-01  0.146505325021E-01  0.148263388921E-01  0.150042549588E-01
  0.151843060183E-01  0.153665176906E-01  0.155509159028E-01  0.157375268937E-01
  0.159263772164E-01  0.161174937430E-01  0.163109036679E-01  0.165066345119E-01
  0.167047141261E-01  0.169051706956E-01  0.171080327439E-01  0.173133291369E-01
  0.175210890865E-01  0.177313421555E-01  0.179441182614E-01  0.181594476805E-01
  0.183773610527E-01  0.185978893853E-01  0.188210640580E-01  0.190469168267E-01
  0.192754798286E-01  0.195067855865E-01  0.197408670136E-01  0.199777574177E-01
  0.202174905067E-01  0.204601003928E-01  0.207056215975E-01  0.209540890567E-01
  0.212055381254E-01  0.214600045829E-01  0.217175246379E-01  0.219781349335E-01
  0.222418725527E-01  0.225087750234E-01  0.227788803236E-01  0.230522268875E-01
  0.233288536102E-01  0.236087998535E-01  0.238921054517E-01  0.241788107172E-01
  0.244689564458E-01  0.247625839231E-01  0.250597349302E-01  0.253604517494E-01
  0.256647771704E-01  0.259727544964E-01  0.262844275504E-01  0.265998406810E-01
  0.269190387691E-01  0.272420672344E-01  0.275689720412E-01  0.278997997057E-01
  0.282345973021E-01  0.285734124698E-01  0.289162934194E-01  0.292632889404E-01
  0.296144484077E-01  0.299698217886E-01  0.303294596501E-01  0.306934131659E-01
  0.310617341239E-01  0.314344749333E-01  0.318116886325E-01  0.321934288961E-01
  0.325797500429E-01  0.329707070434E-01  0.333663555279E-01  0.337667517943E-01
  0.341719528158E-01  0.345820162496E-01  0.349970004446E-01  0.354169644499E-01
  0.358419680233E-01  0.362720716396E-01  0.367073364993E-01  0.371478245373E-01
  0.375935984317E-01  0.380447216129E-01  0.385012582722E-01  0.389632733715E-01
  0.394308326520E-01  0.399040026438E-01  0.403828506755E-01  0.408674448836E-01
  0.413578542222E-01  0.418541484729E-01  0.423563982546E-01  0.428646750336E-01
  0.433790511340E-01  0.438995997476E-01  0.444263949446E-01  0.449595116839E-01
  0.454990258241E-01  0.460450141340E-01  0.465975543036E-01  0.471567249553E-01
  0.477226056547E-01  0.482952769226E-01  0.488748202457E-01  0.494613180886E-01
  0.500548539057E-01  0.506555121526E-01  0.512633782984E-01  0.518785388380E-01
  0.525010813040E-01  0.531310942797E-01  0.537686674110E-01  0.544138914200E-01
  0.550668581170E-01  0.557276604144E-01  0.563963923394E-01  0.570731490474E-01
  0.577580268360E-01  0.584511231580E-01  0.591525366359E-01  0.598623670756E-01
  0.605807154805E-01  0.613076840663E-01  0.620433762750E-01  0.627878967903E-01
  0.635413515518E-01  0.643038477705E-01  0.650754939437E-01  0.658563998710E-01
  0.666466766695E-01  0.674464367895E-01  0.682557940310E-01  0.690748635594E-01
  0.699037619221E-01  0.707426070651E-01  0.715915183499E-01  0.724506165701E-01
  0.733200239690E-01  0.741998642566E-01  0.750902626277E-01  0.759913457792E-01
  0.769032419285E-01  0.778260808317E-01  0.787599938017E-01  0.797051137273E-01
  0.806615750920E-01  0.816295139931E-01  0.826090681610E-01  0.836003769790E-01
  0.846035815027E-01  0.856188244807E-01  0.866462503745E-01  0.876860053790E-01
  0.887382374436E-01  0.898030962929E-01  0.908807334484E-01  0.919713022498E-01
  0.930749578768E-01  0.941918573713E-01  0.953221596597E-01  0.964660255757E-01
  0.976236178826E-01  0.987951012972E-01  0.999806425127E-01  0.101180410223E+00
  0.102394575146E+00  0.103623310047E+00  0.104866789768E+00  0.106125191245E+00
  0.107398693540E+00  0.108687477863E+00  0.109991727597E+00  0.111311628328E+00
  0.112647367868E+00  0.113999136282E+00  0.115367125918E+00  0.116751531429E+00
  0.118152549806E+00  0.119570380404E+00  0.121005224968E+00  0.122457287668E+00
  0.123926775120E+00  0.125413896422E+00  0.126918863179E+00  0.128441889537E+00
  0.129983192211E+00  0.131542990518E+00  0.133121506404E+00  0.134718964481E+00
  0.136335592055E+00  0.137971619159E+00  0.139627278589E+00  0.141302805932E+00
  0.142998439603E+00  0.144714420879E+00  0.146450993929E+00  0.148208405856E+00
  0.149986906727E+00  0.151786749607E+00  0.153608190603E+00  0.155451488890E+00
  0.157316906756E+00  0.159204709638E+00  0.161115166153E+00  0.163048548147E+00
  0.165005130725E+00  0.166985192293E+00  0.168989014601E+00  0.171016882776E+00
  0.173069085370E+00  0.175145914394E+00  0.177247665367E+00  0.179374637351E+00
  0.181527132999E+00  0.183705458595E+00  0.185909924098E+00  0.188140843188E+00
  0.190398533306E+00  0.192683315706E+00  0.194995515494E+00  0.197335461680E+00
  0.199703487220E+00  0.202099929067E+00  0.204525128216E+00  0.206979429754E+00
  0.209463182911E+00  0.211976741106E+00  0.214520461999E+00  0.217094707543E+00
  0.219699844034E+00  0.222336242162E+00  0.225004277068E+00  0.227704328393E+00
  0.230436780334E+00  0.233202021698E+00  0.236000445958E+00  0.238832451310E+00
  0.241698440725E+00  0.244598822014E+00  0.247534007878E+00  0.250504415973E+00
  0.253510468964E+00  0.256552594592E+00  0.259631225727E+00  0.262746800436E+00
  0.265899762041E+00  0.269090559186E+00  0.272319645896E+00  0.275587481647E+00
  0.278894531426E+00  0.282241265803E+00  0.285628160993E+00  0.289055698925E+00
  0.292524367312E+00  0.296034659720E+00  0.299587075636E+00  0.303182120544E+00
  0.306820305991E+00  0.310502149663E+00  0.314228175458E+00  0.317998913564E+00
  0.321814900527E+00  0.325676679333E+00  0.329584799485E+00  0.333539817079E+00
  0.337542294884E+00  0.341592802422E+00  0.345691916052E+00  0.349840219044E+00
  0.354038301673E+00  0.358286761293E+00  0.362586202428E+00  0.366937236857E+00
  0.371340483700E+00  0.375796569504E+00  0.380306128338E+00  0.384869801878E+00
  0.389488239501E+00  0.394162098375E+00  0.398892043555E+00  0.403678748078E+00
  0.408522893055E+00  0.413425167771E+00  0.418386269785E+00  0.423406905022E+00
  0.428487787882E+00  0.433629641337E+00  0.438833197033E+00  0.444099195397E+00
  0.449428385742E+00  0.454821526371E+00  0.460279384688E+00  0.465802737304E+00
  0.471392370151E+00  0.477049078593E+00  0.482773667536E+00  0.488566951547E+00
  0.494429754965E+00  0.500362912025E+00  0.506367266969E+00  0.512443674173E+00
  0.518592998263E+00  0.524816114242E+00  0.531113907613E+00  0.537487274504E+00
  0.543937121798E+00  0.550464367260E+00  0.557069939667E+00  0.563754778943E+00
  0.570519836291E+00  0.577366074326E+00  0.584294467218E+00  0.591306000825E+00
  0.598401672834E+00  0.605582492908E+00  0.612849482823E+00  0.620203676617E+00
  0.627646120737E+00  0.635177874185E+00  0.642800008676E+00  0.650513608780E+00
  0.658319772085E+00  0.666219609350E+00  0.674214244662E+00  0.682304815598E+00
  0.690492473386E+00  0.698778383066E+00  0.707163723663E+00  0.715649688347E+00
  0.724237484607E+00  0.732928334422E+00  0.741723474435E+00  0.750624156129E+00
  0.759631646002E+00  0.768747225754E+00  0.777972192463E+00  0.787307858773E+00
  0.796755553078E+00  0.806316619715E+00  0.815992419152E+00  0.825784328181E+00
  0.835693740120E+00  0.845722065001E+00  0.855870729781E+00  0.866141178538E+00
  0.876534872681E+00  0.887053291153E+00  0.897697930647E+00  0.908470305815E+00
  0.919371949484E+00  0.930404412878E+00  0.941569265833E+00  0.952868097023E+00
  0.964302514187E+00  0.975874144357E+00  0.987584634090E+00  0.999435649699E+00
  0.101142887750E+01  0.102356602402E+01  0.103584881631E+01  0.104827900211E+01
  0.106085835013E+01  0.107358865034E+01  0.108647171414E+01  0.109950937471E+01
  0.111270348721E+01  0.112605592905E+01  0.113956860020E+01  0.115324342340E+01
  0.116708234448E+01  0.118108733262E+01  0.119526038061E+01  0.120960350518E+01
  0.122411874724E+01  0.123880817221E+01  0.125367387027E+01  0.126871795672E+01
  0.128394257220E+01  0.129934988306E+01  0.131494208166E+01  0.133072138664E+01
  0.134669004328E+01  0.136285032380E+01  0.137920452768E+01  0.139575498202E+01
  0.141250404180E+01  0.142945409030E+01  0.144660753939E+01  0.146396682986E+01
  0.148153443182E+01  0.149931284500E+01  0.151730459914E+01  0.153551225433E+01
  0.155393840138E+01  0.157258566220E+01  0.159145669014E+01  0.161055417042E+01
  0.162988082047E+01  0.164943939032E+01  0.166923266300E+01  0.168926345496E+01
  0.170953461641E+01  0.173004903181E+01  0.175080962019E+01  0.177181933564E+01
  0.179308116766E+01  0.181459814168E+01  0.183637331938E+01  0.185840979921E+01
  0.188071071680E+01  0.190327924540E+01  0.192611859634E+01  0.194923201950E+01
  0.197262280373E+01  0.199629427738E+01  0.202024980871E+01  0.204449280641E+01
  0.206902672009E+01  0.209385504073E+01  0.211898130122E+01  0.214440907683E+01
  0.217014198576E+01  0.219618368959E+01  0.222253789386E+01  0.224920834859E+01
  0.227619884877E+01  0.230351323495E+01  0.233115539377E+01  0.235912925850E+01
  0.238743880960E+01  0.241608807532E+01  0.244508113222E+01  0.247442210581E+01
  0.250411517108E+01  0.253416455313E+01  0.256457452777E+01  0.259534942210E+01
  0.262649361517E+01  0.265801153855E+01  0.268990767701E+01  0.272218656913E+01
  0.275485280796E+01  0.278791104166E+01  0.282136597416E+01  0.285522236585E+01
  0.288948503424E+01  0.292415885465E+01  0.295924876091E+01  0.299475974604E+01
  0.303069686299E+01  0.306706522535E+01  0.310387000805E+01  0.314111644815E+01
  0.317880984552E+01  0.321695556367E+01  0.325555903043E+01  0.329462573880E+01
  0.333416124767E+01  0.337417118264E+01  0.341466123683E+01  0.345563717167E+01
  0.349710481773E+01  0.353907007554E+01  0.358153891645E+01  0.362451738345E+01
  0.366801159205E+01  0.371202773115E+01  0.375657206393E+01  0.380165092869E+01
  0.384727073984E+01  0.389343798872E+01  0.394015924458E+01  0.398744115552E+01
  0.403529044938E+01  0.408371393478E+01  0.413271850199E+01  0.418231112402E+01
  0.423249885750E+01  0.428328884379E+01  0.433468830992E+01  0.438670456964E+01
  0.443934502447E+01  0.449261716477E+01  0.454652857075E+01  0.460108691359E+01
  0.465629995656E+01  0.471217555604E+01  0.476872166271E+01  0.482594632266E+01
  0.488385767853E+01  0.494246397068E+01  0.500177353832E+01  0.506179482078E+01
  0.512253635863E+01  0.518400679494E+01  0.524621487648E+01  0.530916945499E+01
  0.537287948845E+01  0.543735404232E+01  0.550260229082E+01  0.556863351831E+01
  0.563545712053E+01  0.570308260598E+01  0.577151959725E+01  0.584077783242E+01
  0.591086716641E+01  0.598179757240E+01  0.605357914327E+01  0.612622209299E+01
  0.619973675811E+01  0.627413359921E+01  0.634942320240E+01  0.642561628082E+01
  0.650272367619E+01  0.658075636031E+01  0.665972543663E+01  0.673964214187E+01
  0.682051784757E+01  0.690236406175E+01  0.698519243049E+01  0.706901473965E+01
  0.715384291653E+01  0.723968903153E+01  0.732656529990E+01  0.741448408350E+01
  0.750345789251E+01  0.759349938722E+01  0.768462137986E+01  0.777683683642E+01
  0.787015887846E+01  0.796460078500E+01  0.806017599442E+01  0.815689810635E+01
  0.825478088363E+01  0.835383825423E+01  0.845408431328E+01  0.855553332504E+01
  0.865819972494E+01  0.876209812164E+01  0.886724329910E+01  0.897365021869E+01
  0.908133402131E+01  0.919031002957E+01  0.930059374993E+01  0.941220087492E+01
  0.952514728542E+01  0.963944905285E+01  0.975512244148E+01  0.987218391078E+01
  0.999065011771E+01  0.101105379191E+02  0.102318643742E+02  0.103546467466E+02
  0.104789025076E+02  0.106046493377E+02  0.107319051297E+02  0.108606879913E+02
  0.109910162472E+02  0.111229084422E+02  0.112563833435E+02  0.113914599436E+02
  0.115281574629E+02  0.116664953525E+02  0.118064932967E+02  0.119481712163E+02
  0.120915492709E+02  0.122366478621E+02  0.123834876365E+02  0.125320894881E+02
  0.126824745619E+02  0.128346642567E+02  0.129886802278E+02  0.131445443905E+02
  0.133022789232E+02  0.134619062703E+02  0.136234491455E+02  0.137869305353E+02
  0.139523737017E+02  0.141198021861E+02  0.142892398123E+02  0.144607106901E+02
  0.146342392184E+02  0.148098500890E+02  0.149875682900E+02  0.151674191095E+02
  0.153494281388E+02  0.155336212765E+02  0.157200247318E+02  0.159086650286E+02
  0.160995690090E+02  0.162927638371E+02  0.164882770031E+02  0.166861363271E+02
  0.168863699631E+02  0.170890064026E+02  0.172940744795E+02  0.175016033732E+02
  0.177116226137E+02  0.179241620851E+02  0.181392520301E+02  0.183569230544E+02
  0.185772061311E+02  0.188001326047E+02  0.190257341959E+02  0.192540430063E+02
  0.194850915223E+02  0.197189126206E+02  0.199555395721E+02  0.201950060469E+02
  0.204373461195E+02  0.206825942729E+02  0.209307854042E+02  0.211819548290E+02
  0.214361382870E+02  0.216933719464E+02  0.219536924098E+02  0.222171367187E+02
  0.224837423593E+02  0.227535472676E+02  0.230265898349E+02  0.233029089129E+02
  0.235825438198E+02  0.238655343457E+02  0.241519207578E+02  0.244417438069E+02
  0.247350447326E+02  0.250318652694E+02  0.253322476526E+02  0.256362346245E+02
  0.259438694399E+02  0.262551958732E+02  0.265702582237E+02  0.268891013224E+02
  0.272117705383E+02  0.275383117847E+02  0.278687715261E+02  0.282031967844E+02
  0.285416351459E+02  0.288841347676E+02  0.292307443848E+02  0.295815133174E+02
  0.299364914772E+02  0.302957293750E+02  0.306592781275E+02  0.310271894650E+02
  0.313995157386E+02  0.317763099274E+02  0.321576256466E+02  0.325435171543E+02
  0.329340393602E+02  0.333292478325E+02  0.337291988065E+02  0.341339491922E+02
  0.345435565825E+02  0.349580792615E+02  0.353775762126E+02  0.358021071272E+02
  0.362317324127E+02  0.366665132016E+02  0.371065113601E+02  0.375517894964E+02
  0.380024109703E+02  0.384584399020E+02  0.389199411808E+02  0.393869804750E+02
  0.398596242407E+02  0.403379397316E+02  0.408219950083E+02  0.413118589484E+02
  0.418076012558E+02  0.423092924709E+02  0.428170039805E+02  0.433308080283E+02
  0.438507777247E+02  0.443769870573E+02
   </PP_R>
   <PP_RAB type="real"  size="1226" columns="4">
  0.238571417305E-06  0.241434274313E-06  0.244331485605E-06  0.247263463432E-06
  0.250230624993E-06  0.253233392493E-06  0.256272193203E-06  0.259347459522E-06
  0.262459629036E-06  0.265609144584E-06  0.268796454319E-06  0.272022011771E-06
  0.275286275912E-06  0.278589711223E-06  0.281932787758E-06  0.285315981211E-06
  0.288739772986E-06  0.292204650261E-06  0.295711106065E-06  0.299259639337E-06
  0.302850755009E-06  0.306484964070E-06  0.310162783638E-06  0.313884737042E-06
  0.317651353887E-06  0.321463170133E-06  0.325320728175E-06  0.329224576913E-06
  0.333175271836E-06  0.337173375098E-06  0.341219455599E-06  0.345314089066E-06
  0.349457858135E-06  0.353651352433E-06  0.357895168662E-06  0.362189910686E-06
  0.366536189614E-06  0.370934623889E-06  0.375385839376E-06  0.379890469449E-06
  0.384449155082E-06  0.389062544943E-06  0.393731295482E-06  0.398456071028E-06
  0.403237543880E-06  0.408076394407E-06  0.412973311140E-06  0.417928990874E-06
  0.422944138764E-06  0.428019468429E-06  0.433155702050E-06  0.438353570475E-06
  0.443613813321E-06  0.448937179080E-06  0.454324425229E-06  0.459776318332E-06
  0.465293634152E-06  0.470877157762E-06  0.476527683655E-06  0.482246015859E-06
  0.488032968049E-06  0.493889363666E-06  0.499816036030E-06  0.505813828462E-06
  0.511883594404E-06  0.518026197537E-06  0.524242511907E-06  0.530533422050E-06
  0.536899823115E-06  0.543342620992E-06  0.549862732444E-06  0.556461085233E-06
  0.563138618256E-06  0.569896281675E-06  0.576735037055E-06  0.583655857500E-06
  0.590659727790E-06  0.597747644523E-06  0.604920616258E-06  0.612179663653E-06
  0.619525819616E-06  0.626960129452E-06  0.634483651005E-06  0.642097454817E-06
  0.649802624275E-06  0.657600255766E-06  0.665491458836E-06  0.673477356342E-06
  0.681559084618E-06  0.689737793633E-06  0.698014647157E-06  0.706390822923E-06
  0.714867512798E-06  0.723445922951E-06  0.732127274027E-06  0.740912801315E-06
  0.749803754931E-06  0.758801399990E-06  0.767907016790E-06  0.777121900991E-06
  0.786447363803E-06  0.795884732169E-06  0.805435348955E-06  0.815100573142E-06
  0.824881780020E-06  0.834780361380E-06  0.844797725717E-06  0.854935298426E-06
  0.865194522007E-06  0.875576856271E-06  0.886083778546E-06  0.896716783889E-06
  0.907477385295E-06  0.918367113919E-06  0.929387519286E-06  0.940540169517E-06
  0.951826651551E-06  0.963248571370E-06  0.974807554226E-06  0.986505244877E-06
  0.998343307816E-06  0.101032342751E-05  0.102244730864E-05  0.103471667634E-05
  0.104713327646E-05  0.105969887578E-05  0.107241526229E-05  0.108528424543E-05
  0.109830765638E-05  0.111148734826E-05  0.112482519643E-05  0.113832309879E-05