<UPF version="2.0.1">
  <PP_INFO>
    Generated using FHI98PP, converted with fhi2upf.x v.5.0.2
    Author: unknown
    Generation date: unknown
    Pseudopotential type: SL
    Element: S
    Functional: LDA

    Suggested minimum cutoff for wavefunctions:   0. Ry
    Suggested minimum cutoff for charge density:   0. Ry
    The Pseudo was generated with a Scalar-Relativistic Calculation
    L component and cutoff radius for Local Potential:  2   0.0000

    Valence configuration: 
    nl pn  l   occ       Rcut    Rcut US       E pseu
    3s  3  0  2.00      0.000      0.000     0.000000
    3p  3  1  4.00      0.000      0.000     0.000000
    3d  3  2  0.00      0.000      0.000     0.000000

    Generation configuration: not available.
    Comment:
    Info: automatically converted from FHI format
  </PP_INFO>
  <!--                               -->
  <!-- END OF HUMAN READABLE SECTION -->
  <!--                               -->
  <PP_HEADER generated="Generated using FHI98PP, converted with fhi2upf.x v.5.0.2"
             author="unknown"
             date="unknown"
             comment="Info: automatically converted from FHI format"
             element="S "
             pseudo_type="SL"
             relativistic="scalar"
             is_ultrasoft="F"
             is_paw="F"
             is_coulomb="F"
             has_so="F"
             has_wfc="F"
             has_gipaw="F"
             paw_as_gipaw="F"
             core_correction="F"
             functional="LDA"
             z_valence="6.000000000000000E+000"
             total_psenergy="0.000000000000000E+000"
             wfc_cutoff="0.000000000000000E+000"
             rho_cutoff="0.000000000000000E+000"
             l_max="1"
             l_max_rho="0"
             l_local="2"
             mesh_size="501"
             number_of_wfc="3"
             number_of_proj="2"/>
  <PP_MESH dx="2.439988682353512E-002" mesh="501" xmin="-Infinity" rmax="7.764761809943001E+001" zmesh="0.000000000000000E+000">
    <PP_R type="real" size="501" columns="4">
 3.906250000000000E-004  4.002734375000000E-004  4.101601914062500E-004  4.202911481339800E-004 
 4.306723394928900E-004  4.413099462783700E-004  4.522103019514400E-004  4.633798964096400E-004 
 4.748253798509600E-004  4.865535667332800E-004  4.985714398315900E-004  5.108861543954300E-004 
 5.235050424090000E-004  5.364356169565000E-004  5.496855766953300E-004  5.632628104397000E-004 
 5.771754018575600E-004  5.914316342834500E-004  6.060399956502500E-004  6.210091835428100E-004 
 6.363481103763200E-004  6.520659087026100E-004  6.681719366475700E-004  6.846757834827600E-004 
 7.015872753347800E-004  7.189164810355500E-004  7.366737181171300E-004  7.548695589546200E-004 
 7.735148370608000E-004  7.926206535362100E-004  8.121983836785500E-004  8.322596837554101E-004 
 8.528164979441700E-004  8.738810654433900E-004  8.954659277598400E-004  9.175839361755100E-004 
 9.402482593990400E-004  9.634723914062000E-004  9.872701594739301E-004  1.011655732412900E-003 
 1.036643629003500E-003  1.062248726639900E-003  1.088486270187900E-003  1.115371881061600E-003 
 1.142921566523800E-003  1.171151729216900E-003  1.200079176928600E-003  1.229721132598700E-003 
 1.260095244573900E-003  1.291219597114900E-003  1.323112721163600E-003  1.355793605376400E-003 
 1.389281707429200E-003  1.423596965602700E-003  1.458759810653100E-003  1.494791177976200E-003 
 1.531712520072200E-003  1.569545819318000E-003  1.608313601055100E-003  1.648038947001200E-003 
 1.688745508992100E-003  1.730457523064200E-003  1.773199823883900E-003  1.816997859533800E-003 
 1.861877706664300E-003  1.907866086018900E-003  1.954990378343600E-003  2.003278640688700E-003 
 2.052759623113700E-003  2.103462785804600E-003  2.155418316614000E-003  2.208657149034400E-003 
 2.263210980615500E-003  2.319112291836700E-003  2.376394365445100E-003  2.435091306271600E-003 
 2.495238061536500E-003  2.556870441656400E-003  2.620025141565300E-003  2.684739762562000E-003 
 2.751052834697300E-003  2.819003839714300E-003  2.888633234555300E-003  2.959982475448800E-003 
 3.033094042592400E-003  3.108011465444400E-003  3.184779348640900E-003  3.263443398552300E-003 
 3.344050450496500E-003  3.426648496623800E-003  3.511286714490400E-003  3.598015496338300E-003 
 3.686886479097900E-003  3.777952575131600E-003  3.871268003737300E-003  3.966888323429600E-003 
 4.064870465018400E-003  4.165272765504300E-003  4.268155002812300E-003  4.373578431381700E-003 
 4.481605818636900E-003  4.592301482357200E-003  4.705731328971400E-003  4.821962892797000E-003 
 4.941065376249100E-003  5.063109691042400E-003  5.188168500411200E-003  5.316316262371400E-003 
 5.447629274051900E-003  5.582185717121000E-003  5.720065704333900E-003  5.861351327230900E-003 
 6.006126705013500E-003  6.154478034627400E-003  6.306493642082700E-003  6.462264035042100E-003 
 6.621881956707700E-003  6.785442441038300E-003  6.953042869332000E-003  7.124783028204500E-003 
 7.300765169001100E-003  7.481094068675500E-003  7.665877092171700E-003  7.855224256348400E-003 
 8.049248295480200E-003  8.248064728378499E-003  8.451791927169499E-003  8.660551187770600E-003 
 8.874466802108500E-003  9.093666132120599E-003  9.318279685584000E-003  9.548441193817900E-003 
 9.784287691305200E-003  1.002595959728000E-002  1.027360079933300E-002  1.052735873907700E-002 
 1.078738449993200E-002  1.105383289708000E-002  1.132686256963800E-002  1.160663607510800E-002 
 1.189331998616300E-002  1.218708498982200E-002  1.248810598907000E-002  1.279656220700000E-002 
 1.311263729351300E-002  1.343651943466300E-002  1.376840146469900E-002  1.410848098087700E-002 
 1.445696046110500E-002  1.481404738449400E-002  1.517995435489100E-002  1.555489922745700E-002 
 1.593910523837500E-002  1.633280113776300E-002  1.673622132586600E-002  1.714960599261500E-002 
 1.757320126063200E-002  1.800725933177000E-002  1.845203863726500E-002  1.890780399160500E-002 
 1.937482675019800E-002  1.985338497092800E-002  2.034376357970900E-002  2.084625454012800E-002 
 2.136115702726900E-002  2.188877760584300E-002  2.242943041270700E-002  2.298343734390100E-002 
 2.355112824629600E-002  2.413284111397900E-002  2.472892228949400E-002  2.533972667004500E-002 
 2.596561791879500E-002  2.660696868138900E-002  2.726416080782000E-002  2.793758557977300E-002 
 2.862764394359300E-002  2.933474674900000E-002  3.005931499370000E-002  3.080178007404400E-002 
 3.156258404187300E-002  3.234217986770800E-002  3.314103171044000E-002  3.395961519368800E-002 
 3.479841768897200E-002  3.565793860589000E-002  3.653868968945500E-002  3.744119532478500E-002 
 3.836599284930700E-002  3.931363287268500E-002  4.028467960464000E-002  4.127971119087500E-002 
 4.229932005728900E-002  4.334411326270400E-002  4.441471286029300E-002  4.551175626794200E-002 
 4.663589664776000E-002  4.778780329496000E-002  4.896816203634600E-002  5.017767563864300E-002 
 5.141706422691800E-002  5.268706571332300E-002  5.398843623644200E-002  5.532195061148200E-002 
 5.668840279158500E-002  5.808860634053800E-002  5.952339491714900E-002  6.099362277160200E-002 
 6.250016525406100E-002  6.404391933583600E-002  6.562580414343100E-002  6.724676150577399E-002 
 6.890775651496700E-002  7.060977810088601E-002  7.235383961997800E-002  7.414097945859199E-002 
 7.597226165121899E-002  7.784877651400400E-002  7.977164129390001E-002  8.174200083385900E-002 
 8.376102825445600E-002  8.582992565234100E-002  8.794992481595400E-002  9.012228795890800E-002 
 9.234830847149300E-002  9.462931169073800E-002  9.696665568950000E-002  9.936173208503001E-002 
 1.018159668675300E-001  1.043308212491600E-001  1.069077925340100E-001  1.095484150096000E-001 
 1.122542608603400E-001  1.150269411035900E-001  1.178681065488500E-001  1.207794487806100E-001 
 1.237627011654900E-001  1.268196398842700E-001  1.299520849894200E-001  1.331619014886500E-001 
 1.364510004554200E-001  1.398213401666700E-001  1.432749272687900E-001  1.468138179723300E-001 
 1.504401192762500E-001  1.541559902223700E-001  1.579636431808600E-001  1.618653451674300E-001 
 1.658634191930600E-001  1.699602456471300E-001  1.741582637146200E-001  1.784599728283700E-001 
 1.828679341572300E-001  1.873847721309100E-001  1.920131760025500E-001  1.967559014498100E-001 
 2.016157722156200E-001  2.065956817893400E-001  2.116985951295400E-001  2.169275504292400E-001 
 2.222856609248400E-001  2.277761167496900E-001  2.334021868334000E-001  2.391672208481900E-001 
 2.450746512031400E-001  2.511279950878600E-001  2.573308565665300E-001  2.636869287237200E-001 
 2.701999958632000E-001  2.768739357610200E-001  2.837127219743100E-001  2.907204262070800E-001 
 2.979012207343900E-001  3.052593808865300E-001  3.127992875944300E-001  3.205254299980100E-001 
 3.284424081189600E-001  3.365549355995000E-001  3.448678425088100E-001  3.533860782187800E-001 
 3.621147143507800E-001  3.710589477952500E-001  3.802241038057900E-001  3.896156391697900E-001 
 3.992391454572900E-001  4.091003523500800E-001  4.192051310531300E-001  4.295594977901400E-001 
 4.401696173855600E-001  4.510418069349800E-001  4.621825395662700E-001  4.735984482935600E-001 
 4.852963299664100E-001  4.972831493165800E-001  5.095660431047000E-001  5.221523243693900E-001 
 5.350494867813100E-001  5.482652091048100E-001  5.618073597697000E-001  5.756840015560100E-001 
 5.899033963944400E-001  6.044740102853901E-001  6.194045183394400E-001  6.347038099424200E-001 
 6.503809940480000E-001  6.664454046009800E-001  6.829066060946301E-001  6.997743992651601E-001 
 7.170588269270100E-001  7.347701799521100E-001  7.529190033969300E-001  7.715161027808300E-001 
 7.905725505195200E-001  8.100996925173500E-001  8.301091549225300E-001  8.506128510491200E-001 
 8.716229884700299E-001  8.931520762852400E-001  9.152129325694800E-001  9.378186920039500E-001 
 9.609828136964500E-001  9.847190891947500E-001  1.009041650697900E+000  1.033964979470100E+000 
 1.059503914463000E+000  1.085673661150200E+000  1.112489800580700E+000  1.139968298655000E+000 
 1.168125515631800E+000  1.196978215867900E+000  1.226543577799800E+000  1.256839204171500E+000 
 1.287883132514500E+000  1.319693845887600E+000  1.352290283881000E+000  1.385691853892900E+000 
 1.419918442684100E+000  1.454990428218400E+000  1.490928691795300E+000  1.527754630482700E+000 
 1.565490169855600E+000  1.604157777051000E+000  1.643780474144200E+000  1.684381851855600E+000 
 1.725986083596400E+000  1.768617939861200E+000  1.812302802975800E+000  1.857066682209300E+000 
 1.902936229259900E+000  1.949938754122600E+000  1.998102241349400E+000  2.047455366710800E+000 
 2.098027514268500E+000  2.149848793870900E+000  2.202950059079600E+000  2.257362925538800E+000 
 2.313119789799600E+000  2.370253848607700E+000  2.428799118668300E+000  2.488790456899400E+000 
 2.550263581184800E+000  2.613255091640100E+000  2.677802492403600E+000  2.743944213966000E+000 
 2.811719636050900E+000  2.881169111061400E+000  2.952333988104600E+000  3.025256637610800E+000 
 3.099980476559800E+000  3.176549994330800E+000  3.255010779190700E+000  3.335409545436800E+000 
 3.417794161209000E+000  3.502213676990900E+000  3.588718354812600E+000  3.677359698176500E+000 
 3.768190482721400E+000  3.861264787644600E+000  3.956638027899500E+000  4.054366987188600E+000 
 4.154509851772100E+000  4.257126245110900E+000  4.362277263365100E+000  4.470025511770300E+000 
 4.580435141911000E+000  4.693571889916200E+000  4.809503115597100E+000  4.928297842552400E+000 
 5.050026799263400E+000  5.174762461205200E+000  5.302579093997000E+000  5.433552797618700E+000 
 5.567761551719900E+000  5.705285262047400E+000  5.846205808019900E+000  5.990607091478000E+000 
 6.138575086637500E+000  6.290197891277500E+000  6.445565779192000E+000  6.604771253938100E+000 
 6.767909103910300E+000  6.935076458776900E+000  7.106372847308700E+000  7.281900256637200E+000 
 7.461763192976200E+000  7.646068743842700E+000  7.834926641815600E+000  8.028449329868501E+000 
 8.226752028316200E+000  8.429952803415601E+000  8.638172637660000E+000  8.851535501810201E+000 
 9.070168428704900E+000  9.294201588893900E+000  9.523768368139599E+000  9.759005446832600E+000 
 1.000005288136900E+001  1.024705418753900E+001  1.050015642597100E+001  1.075951028969300E+001 
 1.102527019384800E+001  1.129759436763600E+001  1.157664494851700E+001  1.186258807874500E+001 
 1.215559400429000E+001  1.245583717619600E+001  1.276349635444800E+001  1.307875471440300E+001 
 1.340179995584900E+001  1.373282441475900E+001  1.407202517780300E+001  1.441960419969500E+001 
 1.477576842342700E+001  1.514072990348600E+001  1.551470593210200E+001  1.589791916862500E+001 
 1.629059777209000E+001  1.669297553706100E+001  1.710529203282600E+001  1.752779274603700E+001 
 1.796072922686400E+001  1.840435923876700E+001  1.885894691196500E+001  1.932476290069100E+001 
 1.980208454433800E+001  2.029119603258300E+001  2.079238857458800E+001  2.130596057238000E+001 
 2.183221779851800E+001  2.237147357814100E+001  2.292404897552100E+001  2.349027298521600E+001 
 2.407048272795100E+001  2.466502365133200E+001  2.527424973552000E+001  2.589852370398700E+001 
 2.653821723947500E+001  2.719371120529000E+001  2.786539587206100E+001  2.855367115010100E+001 
 2.925894682750800E+001  2.998164281414800E+001  3.072218939165700E+001  3.148102746963100E+001 
 3.225860884813100E+001  3.305539648668000E+001  3.387186477990100E+001  3.470849983996500E+001 
 3.556579978601200E+001  3.644427504072600E+001  3.734444863423200E+001  3.826685651549800E+001 
 3.921204787143000E+001  4.018058545385500E+001  4.117304591456500E+001  4.219002014865500E+001 
 4.323211364632700E+001  4.429994685339100E+001  4.539415554067000E+001  4.651539118252400E+001 
 4.766432134473200E+001  4.884163008194700E+001  5.004801834497100E+001  5.128420439809200E+001 
 5.255092424672500E+001  5.384893207561900E+001  5.517900069788700E+001  5.654192201512500E+001 
 5.793850748889800E+001  5.936958862387400E+001  6.083601746288400E+001  6.233866709421700E+001 
 6.387843217144400E+001  6.545622944607901E+001  6.707299831339699E+001  6.872970137173800E+001 
 7.042732499562000E+001  7.216687992301200E+001  7.394940185711000E+001  7.577595208298099E+001 
 7.764761809943001E+001
    </PP_R>
    <PP_RAB type="real" size="501" columns="4">
 9.531205790443408E-006  9.766626573467360E-006  1.000786224983200E-005  1.025505644740275E-005 
 1.050835634165361E-005  1.076791274329259E-005  1.103388018805178E-005  1.130641702869665E-005 
 1.158568552930550E-005  1.187185196187937E-005  1.216508670533775E-005  1.246556434695958E-005 
 1.277346378632955E-005  1.308896834185184E-005  1.341226585989569E-005  1.374354882663500E-005 
 1.408301448265287E-005  1.443086494037459E-005  1.478730730440182E-005  1.515255379482051E-005 
 1.552682187355264E-005  1.591033437382927E-005  1.630331963286299E-005  1.670601162779458E-005 
 1.711865011500101E-005  1.754148077284155E-005  1.797475534793079E-005  1.841873180502460E-005 
 1.887367448060873E-005  1.933985424027997E-005  1.981754864001477E-005  2.030704209142314E-005 
 2.080862603108132E-005  2.132259909404900E-005  2.184926729167197E-005  2.238894419377632E-005 
 2.294195111536247E-005  2.350861730791201E-005  2.408928015541736E-005  2.468428537525529E-005 
 2.529398722402413E-005  2.591874870845786E-005  2.655894180155663E-005  2.721494766405652E-005 
 2.788715687135819E-005  2.857596964607981E-005  2.928179609633902E-005  3.000505645991771E-005 
 3.074618135447796E-005  3.150561203393418E-005  3.228380065117142E-005  3.308121052725680E-005 
 3.389831642728012E-005  3.473560484303391E-005  3.559357428265716E-005  3.647273556743803E-005 
 3.737361213595345E-005  3.829674035571190E-005  3.924266984249665E-005  4.021196378760728E-005 
 4.120519929316045E-005  4.222296771570139E-005  4.326587501827957E-005  4.433454213123028E-005 
 4.542960532187204E-005  4.655171657332208E-005  4.770154397268395E-005  4.887977210880956E-005 
 5.008710247989689E-005  5.132425391115014E-005  5.259196298275618E-005  5.389098446843110E-005 
 5.522209178480015E-005  5.658607745188464E-005  5.798375356494700E-005  5.941595227800134E-005 
 6.088352629926777E-005  6.238734939885842E-005  6.392831692900991E-005  6.550734635715735E-005 
 6.712537781217959E-005  6.878337464413986E-005  7.048232399785150E-005  7.222323740059804E-005 
 7.400715136439317E-005  7.583512800309290E-005  7.770825566476987E-005  7.962764957968894E-005 
 8.159445252430623E-005  8.360983550165749E-005  8.567499843854825E-005  8.779117089998007E-005 
 8.995961282121064E-005  9.218161525789412E-005  9.445850115476287E-005  9.679162613328522E-005 
 9.918237929877953E-005  1.016321840674581E-004  1.041424990139253E-004  1.067148187395677E-004 
 1.093506747624368E-004  1.120516364290682E-004  1.148193118488657E-004  1.176553488515328E-004 
 1.205614359681660E-004  1.235393034365784E-004  1.265907242314632E-004  1.297175151199814E-004 
 1.329215377434432E-004  1.362046997257066E-004  1.395689558089319E-004  1.430163090174113E-004 
 1.465488118501413E-004  1.501685675028414E-004  1.538777311201617E-004  1.576785110788286E-004 
 1.615731703024772E-004  1.655640276089464E-004  1.696534590908887E-004  1.738438995304336E-004 
 1.781378438488341E-004  1.825378485919021E-004  1.870465334521200E-004  1.916665828283888E-004 
 1.964007474242499E-004  2.012518458856273E-004  2.062227664790036E-004  2.113164688110353E-004 
 2.165359855906671E-004  2.218844244347570E-004  2.273649697182960E-004  2.329808844703374E-004 
 2.387355123167546E-004  2.446322794709678E-004  2.506746967739052E-004  2.568663617842322E-004 
 2.632109609202978E-004  2.697122716550214E-004  2.763741647649034E-004  2.832006066345951E-004 
 2.901956616184655E-004  2.973634944604605E-004  3.047083727736192E-004  3.122346695811268E-004 
 3.199468659197831E-004  3.278495535080073E-004  3.359474374796508E-004  3.442453391853966E-004 
 3.527481990632841E-004  3.614610795801400E-004  3.703891682457695E-004  3.795377807014447E-004 
 3.889123638847657E-004  3.985184992727229E-004  4.083619062047653E-004  4.184484452880257E-004 
 4.287841218866255E-004  4.393750896972347E-004  4.502276544127633E-004  4.613482774767476E-004 
 4.727435799304319E-004  4.844203463547163E-004  4.963855289096553E-004  5.086462514737284E-004 
 5.212098138851255E-004  5.340836962880992E-004  5.472755635864074E-004  5.607932700069950E-004 
 5.746448637761835E-004  5.888385919114428E-004  6.033829051316485E-004  6.182864628884125E-004 
 6.335581385217535E-004  6.492070245432351E-004  6.652424380494699E-004  6.816739262692881E-004 
 6.985112722481298E-004  7.157645006726648E-004  7.334438838392723E-004  7.515599477700928E-004 
 7.701234784800169E-004  7.891455283984913E-004  8.086374229499246E-004  8.286107672967910E-004 
 8.490774532490194E-004  8.700496663442797E-004  8.915398931029716E-004  9.135609284626263E-004 
 9.361258833956486E-004  9.592481927155240E-004  9.829416230755896E-004  1.007220281165566E-003 
 1.032098622110341E-003  1.057591458076465E-003  1.083713967090959E-003  1.110481702078100E-003 
 1.137910600119425E-003  1.166016991942383E-003  1.194817611643372E-003  1.224329606650944E-003 
 1.254570547935235E-003  1.285558440469239E-003  1.317311733948827E-003  1.349849333777360E-003 
 1.383190612321646E-003  1.417355420446012E-003  1.452364099331021E-003  1.488237492584483E-003 
 1.524996958651331E-003  1.562664383530011E-003  1.601262193803199E-003  1.640813369990144E-003 
 1.681341460228910E-003  1.722870594296547E-003  1.765425497975675E-003  1.809031507775687E-003 
 1.853714586017741E-003  1.899501336292377E-003  1.946419019298801E-003  1.994495569075473E-003 
 2.043759609631654E-003  2.094240471989554E-003  2.145968211647701E-003  2.198973626475397E-003 
 2.253288275049339E-003  2.308944495443036E-003  2.365975424480498E-003  2.424415017465150E-003 
 2.484298068396534E-003  2.545660230685977E-003  2.608538038383817E-003  2.672968927931896E-003 
 2.738991260451884E-003  2.806644344585036E-003  2.875968459896319E-003  2.947004880855841E-003 
 3.019795901412954E-003  3.094384860177669E-003  3.170816166224266E-003  3.249135325529793E-003 
 3.329388968070387E-003  3.411624875581753E-003  3.495892010008702E-003  3.582240542655939E-003 
 3.670721884059625E-003  3.761388714595815E-003  3.854295015846270E-003  3.949496102737740E-003 
 4.047048656475227E-003  4.147010758290199E-003  4.249441924020112E-003  4.354403139543381E-003 
 4.461956897090084E-003  4.572167232448123E-003  4.685099763089750E-003  4.800821727237994E-003 
 4.919402023900765E-003  5.040911253890972E-003  5.165421761862159E-003  5.293007679380164E-003 
 5.423744969060800E-003  5.557711469796759E-003  5.694986943100559E-003  5.835653120595265E-003 
 5.979793752673962E-003  6.127494658365068E-003  6.278843776426681E-003  6.433931217704341E-003 
 6.592849318781738E-003  6.755692696955621E-003  6.922558306570251E-003  7.093545496742646E-003 
 7.268756070512070E-003  7.448294345453732E-003  7.632267215786505E-003  7.820784216016372E-003 
 8.013957586151957E-003  8.211902338529951E-003  8.414736326291698E-003  8.622580313551162E-003 
 8.835558047295782E-003  9.053796331064127E-003  9.277425100441347E-003  9.506577500422173E-003 
 9.741389964682752E-003  9.982002296810294E-003  1.022855775354158E-002  1.048120313005400E-002 
 1.074008884736642E-002  1.100536904189629E-002  1.127720165723103E-002  1.155574853816471E-002 
 1.184117552705736E-002  1.213365256257567E-002  1.243335378087130E-002  1.274045761925892E-002 
 1.305514692245452E-002  1.337760905143918E-002  1.370803599500976E-002  1.404662448408646E-002 
 1.439357610884331E-002  1.474909743873192E-002  1.511340014546862E-002  1.548670112906160E-002 
 1.586922264694947E-002  1.626119244632898E-002  1.666284389975345E-002  1.707441614407718E-002 
 1.749615422283590E-002  1.792830923214002E-002  1.837113847017395E-002  1.882490559038714E-002 
 1.928988075846979E-002  1.976634081320394E-002  2.025456943129011E-002  2.075485729624307E-002 
 2.126750227146019E-002  2.179280957756526E-002  2.233109197413099E-002  2.288266994589212E-002 
 2.344787189355572E-002  2.402703432932649E-002  2.462050207726182E-002  2.522862847856926E-002 
 2.585177560198964E-002  2.649031445935790E-002  2.714462522650624E-002  2.781509746959988E-002 
 2.850213037709953E-002  2.920613299741375E-002  2.992752448244896E-002  3.066673433716655E-002 
 3.142420267529368E-002  3.220038048137324E-002  3.299572987926258E-002  3.381072440728133E-002 
 3.464584930014229E-002  3.550160177785586E-002  3.637849134176659E-002  3.727704007790960E-002 
 3.819778296783342E-002  3.914126820713808E-002  4.010805753185537E-002  4.109872655289314E-002 
 4.211386509874879E-002  4.315407756668713E-002  4.421998328258499E-002  4.531221686966479E-002 
 4.643142862634624E-002  4.757828491341652E-002  4.875346855077722E-002  4.995767922398312E-002 
 5.119163390081411E-002  5.245606725816345E-002  5.375173211944224E-002  5.507939990279086E-002 
 5.643986108038958E-002  5.783392564907643E-002  5.926242361260836E-002  6.072620547583962E-002 
 6.222614275109249E-002  6.376312847704534E-002  6.533807775042810E-002  6.695192827086444E-002 
 6.860564089915332E-002  7.030020022936345E-002  7.203661517502832E-002  7.381591956985192E-002 
 7.563917278322758E-002  7.750746035097265E-002  7.942189462163994E-002  8.138361541879664E-002 
 8.339379071963876E-002  8.545361735041475E-002  8.756432169897059E-002  8.972716044493588E-002 
 9.194342130792434E-002  9.421442381422962E-002  9.654152008244299E-002  9.892609562847891E-002 
 1.013695701905009E-001  1.038733985742070E-001  1.064390715189890E-001  1.090681165855100E-001 
 1.117620990651714E-001  1.145226229120811E-001  1.173513316980088E-001  1.202499095909509E-001 
 1.232200823578463E-001  1.262636183920849E-001  1.293823297663702E-001  1.325780733115989E-001 
 1.358527517223959E-001  1.392083146899395E-001  1.426467600627793E-001  1.461701350363301E-001 
 1.497805373717273E-001  1.534801166448103E-001  1.572710755259358E-001  1.611556710914278E-001 
 1.651362161673843E-001  1.692150807067191E-001  1.733946932001753E-001  1.776775421222190E-001 
 1.820661774126393E-001  1.865632119947312E-001  1.911713233310007E-001  1.958932550172778E-001 
 2.007318184162033E-001  2.056898943310833E-001  2.107704347210619E-001  2.159764644586721E-001 
 2.213110831308009E-001  2.267774668841314E-001  2.323788703161700E-001  2.381186284129782E-001 
 2.440001585347699E-001  2.500269624505832E-001  2.562026284231074E-001  2.625308333451708E-001 
 2.690153449287863E-001  2.756600239485262E-001  2.824688265400644E-001  2.894458065555949E-001 
 2.965951179775181E-001  3.039210173915637E-001  3.114278665211343E-001  3.191201348242096E-001 
 3.270024021543736E-001  3.350793614875995E-001  3.433558217163299E-001  3.518367105127297E-001 
 3.605270772623828E-001  3.694320960707722E-001  3.785570688437178E-001  3.879074284441595E-001 
 3.974887419267294E-001  4.073067138523288E-001  4.173671896844714E-001  4.276761592696827E-001 
 4.382397604036410E-001  4.490642824855978E-001  4.601561702630032E-001  4.715220276685106E-001 
 4.831686217519213E-001  4.951028867091901E-001  5.073319280109119E-001  5.198630266327735E-001 
 5.327036433906083E-001  5.458614233823467E-001  5.593442005398886E-001  5.731600022932148E-001 
 5.873170543498613E-001  6.018237855923178E-001  6.166888330964505E-001  6.319210472739244E-001 
 6.475294971415786E-001  6.635234757209748E-001  6.799125055712911E-001  6.967063444589043E-001 
 7.139149911670272E-001  7.315486914488663E-001  7.496179441276422E-001  7.681335073475967E-001 
 7.871064049790850E-001  8.065479331820725E-001  8.264696671316698E-001  8.468834679098328E-001 
 8.678014895672025E-001  8.892361863595002E-001  9.112003201625816E-001  9.337069680706087E-001 
 9.567695301819333E-001  9.804017375774436E-001  1.004617660495601E+000  1.029431716709848E+000 
 1.054858680112587E+000  1.080913689511361E+000  1.107612257642298E+000  1.134970280406049E+000 
 1.163004046332070E+000  1.191730246276475E+000  1.221165983359502E+000  1.251328783148487E+000 
 1.282236604092258E+000  1.313907848213334E+000  1.346361372064208E+000  1.379616497954199E+000 
 1.413693025453653E+000  1.448611243182364E+000  1.484391940888976E+000  1.521056421828928E+000 
 1.558626515448098E+000  1.597124590379675E+000  1.636573567762049E+000  1.676996934885774E+000 
 1.718418759177454E+000  1.760863702529142E+000  1.804357035981602E+000  1.848924654770357E+000 
 1.894593093743169E+000
    </PP_RAB>
  </PP_MESH>
  <PP_LOCAL type="real" size="501" columns="4">
-2.055501826692400E+001 -2.055501854729400E+001 -2.055501881979600E+001 -2.055501908456400E+001 
-2.055501934172600E+001 -2.055501959140400E+001 -2.055501983371600E+001 -2.055502006876800E+001 
-2.055502029666600E+001 -2.055502051751000E+001 -2.055502073139000E+001 -2.055502093839200E+001 
-2.055502113859600E+001 -2.055502133207600E+001 -2.055502151889800E+001 -2.055502169912200E+001 
-2.055502187280400E+001 -2.055502203999200E+001 -2.055502220072600E+001 -2.055502235504200E+001 
-2.055502250296400E+001 -2.055502264451600E+001 -2.055502277971000E+001 -2.055502290855000E+001 
-2.055502303103800E+001 -2.055502314716400E+001 -2.055502325690800E+001 -2.055502336024800E+001 
-2.055502345714800E+001 -2.055502354756600E+001 -2.055502363145200E+001 -2.055502370874600E+001 
-2.055502377937600E+001 -2.055502384326600E+001 -2.055502390032400E+001 -2.055502395045000E+001 
-2.055502399353400E+001 -2.055502402945600E+001 -2.055502405807800E+001 -2.055502407925800E+001 
-2.055502409283600E+001 -2.055502409864000E+001 -2.055502409648600E+001 -2.055502408617600E+001 
-2.055502406749400E+001 -2.055502404021000E+001 -2.055502400408200E+001 -2.055502395884400E+001 
-2.055502390422000E+001 -2.055502383991200E+001 -2.055502376560000E+001 -2.055502368095000E+001 
-2.055502358560400E+001 -2.055502347918400E+001 -2.055502336128600E+001 -2.055502323148400E+001 
-2.055502308933000E+001 -2.055502293434600E+001 -2.055502276603000E+001 -2.055502258384600E+001 
-2.055502238723600E+001 -2.055502217560400E+001 -2.055502194832600E+001 -2.055502170473800E+001 
-2.055502144414600E+001 -2.055502116581600E+001 -2.055502086897400E+001 -2.055502055280400E+001 
-2.055502021644600E+001 -2.055501985900000E+001 -2.055501947951200E+001 -2.055501907697800E+001 
-2.055501865034600E+001 -2.055501819850600E+001 -2.055501772029000E+001 -2.055501721446800E+001 
-2.055501667975200E+001 -2.055501611478200E+001 -2.055501551812800E+001 -2.055501488829000E+001 
-2.055501422368800E+001 -2.055501352266200E+001 -2.055501278346600E+001 -2.055501200426600E+001 
-2.055501118313600E+001 -2.055501031804800E+001 -2.055500940687400E+001 -2.055500844737800E+001 
-2.055500743720600E+001 -2.055500637389000E+001 -2.055500525483400E+001 -2.055500407731400E+001 
-2.055500283846200E+001 -2.055500153527200E+001 -2.055500016458000E+001 -2.055499872306600E+001 
-2.055499720724400E+001 -2.055499561344800E+001 -2.055499393783000E+001 -2.055499217634600E+001 
-2.055499032475200E+001 -2.055498837858600E+001 -2.055498633316600E+001 -2.055498418357200E+001 
-2.055498192463600E+001 -2.055497955093200E+001 -2.055497705675800E+001 -2.055497443613200E+001 
-2.055497168276600E+001 -2.055496879005800E+001 -2.055496575107200E+001 -2.055496255853000E+001 
-2.055495920478400E+001 -2.055495568180200E+001 -2.055495198114800E+001 -2.055494809397000E+001 
-2.055494401096000E+001 -2.055493972235600E+001 -2.055493521789400E+001 -2.055493048680400E+001 
-2.055492551777200E+001 -2.055492029891400E+001 -2.055491481775800E+001 -2.055490906119600E+001 
-2.055490301547000E+001 -2.055489666612800E+001 -2.055488999799200E+001 -2.055488299513000E+001 
-2.055487564079800E+001 -2.055486791742400E+001 -2.055485980654600E+001 -2.055485128877800E+001 
-2.055484234376200E+001 -2.055483295011800E+001 -2.055482308538800E+001 -2.055481272599000E+001 
-2.055480184716000E+001 -2.055479042288600E+001 -2.055477842585000E+001 -2.055476582736000E+001 
-2.055475259728600E+001 -2.055473870398000E+001 -2.055472411420200E+001 -2.055470879304400E+001 