<UPF version="2.0.1">
  <PP_INFO>
    Generated using FHI98PP, converted with fhi2upf.x v.5.0.2
    Author: unknown
    Generation date: unknown
    Pseudopotential type: SL
    Element: Au
    Functional: LDA

    Suggested minimum cutoff for wavefunctions:   0. Ry
    Suggested minimum cutoff for charge density:   0. Ry
    The Pseudo was generated with a Scalar-Relativistic Calculation
    L component and cutoff radius for Local Potential:  1   0.0000

    Valence configuration: 
    nl pn  l   occ       Rcut    Rcut US       E pseu
    6s  6  0  1.00      0.000      0.000     0.000000
    5d  5  2 10.00      0.000      0.000     0.000000
    6p  6  1  0.00      0.000      0.000     0.000000

    Generation configuration: not available.
    Comment:
    Info: automatically converted from FHI format
  </PP_INFO>
  <!--                               -->
  <!-- END OF HUMAN READABLE SECTION -->
  <!--                               -->
  <PP_HEADER generated="Generated using FHI98PP, converted with fhi2upf.x v.5.0.2"
             author="unknown"
             date="unknown"
             comment="Info: automatically converted from FHI format"
             element="Au"
             pseudo_type="SL"
             relativistic="scalar"
             is_ultrasoft="F"
             is_paw="F"
             is_coulomb="F"
             has_so="F"
             has_wfc="F"
             has_gipaw="F"
             paw_as_gipaw="F"
             core_correction="F"
             functional="LDA"
             z_valence="1.100000000000000E+001"
             total_psenergy="0.000000000000000E+000"
             wfc_cutoff="0.000000000000000E+000"
             rho_cutoff="0.000000000000000E+000"
             l_max="2"
             l_max_rho="0"
             l_local="1"
             mesh_size="567"
             number_of_wfc="3"
             number_of_proj="2"/>
  <PP_MESH dx="2.439988682353512E-002" mesh="567" xmin="-Infinity" rmax="7.870559726407200E+001" zmesh="0.000000000000000E+000">
    <PP_R type="real" size="567" columns="4">
 7.911392405063299E-005  8.106803797468400E-005  8.307041851265800E-005  8.512225784992100E-005 
 8.722477761881400E-005  8.937922962599900E-005  9.158689659776100E-005  9.384909294372500E-005 
 9.616716553943500E-005  9.854249452826000E-005  1.009764941431100E-004  1.034706135484400E-004 
 1.060263377030900E-004  1.086451882443600E-004  1.113287243939900E-004  1.140785438865200E-004 
 1.168962839205200E-004  1.197836221333600E-004  1.227422776000500E-004  1.257740118567700E-004 
 1.288806299496300E-004  1.320639815093900E-004  1.353259618526700E-004  1.386685131104300E-004 
 1.420936253842600E-004  1.456033379312500E-004  1.491997403781500E-004  1.528849739654900E-004 
 1.566612328224400E-004  1.605307652731600E-004  1.644958751754000E-004  1.685589232922300E-004 
 1.727223286975500E-004  1.769885702163800E-004  1.813601879007300E-004  1.858397845418800E-004 
 1.904300272200600E-004  1.951336488923900E-004  1.999534500200400E-004  2.048923002355300E-004 
 2.099531400513500E-004  2.151389826106200E-004  2.204529154811000E-004  2.258981024934800E-004 
 2.314777856250700E-004  2.371952869300100E-004  2.430540105171800E-004  2.490574445769600E-004 
 2.552091634580100E-004  2.615128297954200E-004  2.679721966913700E-004  2.745911099496400E-004 
 2.813735103654000E-004  2.883234360714300E-004  2.954450249423900E-004  3.027425170584700E-004 
 3.102202572298100E-004  3.178826975833900E-004  3.257344002137000E-004  3.337800398989800E-004 
 3.420244068844800E-004  3.504724097345300E-004  3.591290782549700E-004  3.679995664878700E-004 
 3.770891557801200E-004  3.864032579278900E-004  3.959474183987100E-004  4.057273196331500E-004 
 4.157487844280900E-004  4.260177794034700E-004  4.365404185547300E-004  4.473229668930300E-004 
 4.583718441752900E-004  4.696936287264200E-004  4.812950613559600E-004  4.931830493714599E-004 
 5.053646706909300E-004  5.178471780570000E-004  5.306380033550100E-004  5.437447620378700E-004 
 5.571752576602100E-004  5.709374865244200E-004  5.850396424415700E-004  5.994901216098800E-004 
 6.142975276136400E-004  6.294706765457000E-004  6.450186022563800E-004  6.609505617321100E-004 
 6.772760406068900E-004  6.940047588098800E-004  7.111466763524900E-004  7.287119992583900E-004 
 7.467111856400700E-004  7.651549519253800E-004  7.840542792379400E-004  8.034204199351200E-004 
 8.232649043075100E-004  8.435995474439100E-004  8.644364562657700E-004  8.857880367355400E-004 
 9.076670012429100E-004  9.300863761736099E-004  9.530595096650900E-004  9.766000795538199E-004 
 1.000722101518800E-003  1.025439937426300E-003  1.050768303880700E-003  1.076722280986600E-003 
 1.103317321327000E-003  1.130569259163700E-003  1.158494319865100E-003  1.187109129565800E-003 
 1.216430725066000E-003  1.246476563975200E-003  1.277264535105300E-003  1.308812969122500E-003 
 1.341140649459800E-003  1.374266823501400E-003  1.408211214041900E-003  1.442994031028800E-003 
 1.478635983595200E-003  1.515158292390000E-003  1.552582702212000E-003  1.590931494956600E-003 
 1.630227502882100E-003  1.670494122203200E-003  1.711755327021700E-003  1.754035683599100E-003 
 1.797360364984000E-003  1.841755165999100E-003  1.887246518599300E-003  1.933861507608700E-003 
 1.981627886846600E-003  2.030574095651700E-003  2.080729275814300E-003  2.132123288926900E-003 
 2.184786734163400E-003  2.238750966497300E-003  2.294048115369800E-003  2.350711103819400E-003 
 2.408773668083700E-003  2.468270377685400E-003  2.529236656014200E-003  2.591708801417800E-003 
 2.655724008812800E-003  2.721320391830500E-003  2.788537005508700E-003  2.857413869544700E-003 
 2.927991992122500E-003  3.000313394327900E-003  3.074421135167800E-003  3.150359337206500E-003 
 3.228173212835500E-003  3.307909091192500E-003  3.389614445745000E-003  3.473337922554900E-003 
 3.559129369242000E-003  3.647039864662200E-003  3.737121749319400E-003  3.829428656527600E-003 
 3.924015544343800E-003  4.020938728289100E-003  4.120255914877900E-003  4.222026235975300E-003 
 4.326310284003900E-003  4.433170148018800E-003  4.542669450674900E-003  4.654873386106600E-003 
 4.769848758743400E-003  4.887664023084400E-003  5.008389324454500E-003  5.132096540768600E-003 
 5.258859325325500E-003  5.388753150661100E-003  5.521855353482400E-003  5.658245180713400E-003 
 5.798003836677100E-003  5.941214531443000E-003  6.087962530369600E-003  6.238335204869700E-003 
 6.392422084430000E-003  6.550314909915500E-003  6.712107688190400E-003  6.877896748088700E-003 
 7.047780797766500E-003  7.221860983471300E-003  7.400240949763000E-003  7.583026901222200E-003 
 7.770327665682400E-003  7.962254759024699E-003  8.158922451572600E-003  8.360447836126500E-003 
 8.566950897678800E-003  8.778554584851500E-003  8.995384883097301E-003  9.217570889709800E-003 
 9.445244890685600E-003  9.678542439485601E-003  9.917602437740800E-003  1.016256721795300E-002 
 1.041358262823600E-002  1.067079811915400E-002  1.093436683269700E-002  1.120444569346500E-002 
 1.148119550209300E-002  1.176478103099500E-002  1.205537112246000E-002  1.235313878918500E-002 
 1.265826131727800E-002  1.297092037181500E-002  1.329130210499900E-002  1.361959726699200E-002 
 1.395600131948700E-002  1.430071455207800E-002  1.465394220151500E-002  1.501589457389200E-002 
 1.538678716986700E-002  1.576684081296300E-002  1.615628178104300E-002  1.655534194103500E-002 
 1.696425888697800E-002  1.738327608148700E-002  1.781264300069900E-002  1.825261528281700E-002 
 1.870345488030200E-002  1.916543021584600E-002  1.963881634217700E-002  2.012389510582900E-002 
 2.062095531494300E-002  2.113029291122200E-002  2.165221114612900E-002  2.218702076143900E-002 
 2.273504017424600E-002  2.329659566655000E-002  2.387202157951400E-002  2.446166051252800E-002 
 2.506586352718700E-002  2.568499035630900E-002  2.631940961810900E-002  2.696949903567700E-002 
 2.763564566185800E-002  2.831824610970600E-002  2.901770678861600E-002  2.973444414629400E-002 
 3.046888491670800E-002  3.122146637415100E-002  3.199263659359200E-002  3.278285471745400E-002 
 3.359259122897500E-002  3.442232823233100E-002  3.527255973966900E-002  3.614379196523900E-002 
 3.703654362678000E-002  3.795134625436200E-002  3.888874450684500E-002  3.984929649616400E-002 
 4.083357411961900E-002  4.184216340037300E-002  4.287566483636300E-002  4.393469375782100E-002 
 4.501988069363900E-002  4.613187174677200E-002  4.727132897891700E-002  4.843893080469600E-002 
 4.963537239557200E-002  5.086136609374300E-002  5.211764183625900E-002  5.340494758961400E-002 
 5.472404979507800E-002  5.607573382501600E-002  5.746080445049400E-002  5.888008632042100E-002 
 6.033442445253500E-002  6.182468473651300E-002  6.335175444950500E-002  6.491654278440800E-002 
 6.651998139118299E-002  6.816302493154500E-002  6.984665164735400E-002  7.157186394304400E-002 
 7.333968898243701E-002  7.515117930030300E-002  7.700741342902000E-002  7.890949654071699E-002 
 8.085856110527299E-002  8.285576756457300E-002  8.490230502341800E-002  8.699939195749699E-002 
 8.914827693884700E-002  9.135023937923600E-002  9.360659029190301E-002  9.591867307211301E-002 
 9.828786429699500E-002  1.007155745451300E-001  1.032032492364000E-001  1.057523694925300E-001 
 1.083644530190000E-001  1.110410550085700E-001  1.137837690672800E-001  1.165942281632400E-001 
 1.194741055988700E-001  1.224251160071700E-001  1.254490163725400E-001  1.285476070769500E-001 
 1.317227329717500E-001  1.349762844761500E-001  1.383101987027100E-001  1.417264606106700E-001 
 1.452271041877500E-001  1.488142136611900E-001  1.524899247386200E-001  1.562564258796600E-001 
 1.601159595988900E-001  1.640708238009800E-001  1.681233731488700E-001  1.722760204656400E-001 
 1.765312381711400E-001  1.808915597539700E-001  1.853595812799000E-001  1.899379629375100E-001 
 1.946294306220600E-001  1.994367775584300E-001  2.043628659641200E-001  2.094106287534400E-001 
 2.145830712836500E-001  2.198832731443500E-001  2.253143899910200E-001  2.308796554238000E-001 
 2.365823829127600E-001  2.424259677707100E-001  2.484138891746500E-001  2.545497122372600E-001 
 2.608370901295200E-001  2.672797662557200E-001  2.738815764822400E-001  2.806464514213500E-001 
 2.875784187714500E-001  2.946816057151100E-001  3.019602413762700E-001  3.094186593382700E-001 
 3.170613002239200E-001  3.248927143394500E-001  3.329175643836400E-001  3.411406282239100E-001 
 3.495668017410400E-001  3.582011017440500E-001  3.670486689571200E-001  3.761147710803700E-001 
 3.854048059260500E-001  3.949243046324200E-001  4.046789349568400E-001  4.146745046502800E-001 
 4.249169649151400E-001  4.354124139485400E-001  4.461671005730700E-001  4.571874279572300E-001 
 4.684799574277700E-001  4.800514123762400E-001  4.919086822619300E-001  5.040588267138000E-001 
 5.165090797336300E-001  5.292668540030500E-001  5.423397452969300E-001  5.557355370057599E-001 
 5.694622047698000E-001  5.835279212276200E-001  5.979410608819400E-001  6.127102050857200E-001 
 6.278441471513400E-001  6.433518975859800E-001  6.592426894563500E-001  6.755259838859200E-001 
 6.922114756879100E-001  7.093090991374000E-001  7.268290338860900E-001  7.447817110230800E-001 
 7.631778192853500E-001  7.820283114217000E-001  8.013444107138100E-001  8.211376176584400E-001 
 8.414197168146100E-001  8.622027838199300E-001  8.834991925802800E-001  9.053216226370100E-001 
 9.276830667161500E-001  9.505968384640400E-001  9.740765803741001E-001  9.981362719093400E-001 
 1.022790237825500E+000  1.048053156699800E+000  1.073940069670300E+000  1.100466389391100E+000 
 1.127647909209100E+000  1.155500812566600E+000  1.184041682636900E+000  1.213287512198100E+000 
 1.243255713749400E+000  1.273964129879000E+000  1.305431043887000E+000  1.337675190671000E+000 
 1.370715767880600E+000  1.404572447347200E+000  1.439265386796700E+000  1.474815241850600E+000 
 1.511243178324300E+000  1.548570884828900E+000  1.586820585684200E+000  1.626015054150600E+000 
 1.666177625988100E+000  1.707332213350000E+000  1.749503319019700E+000  1.792716050999500E+000 
 1.836996137459200E+000  1.882369942054500E+000  1.928864479623200E+000  1.976507432269900E+000 
 2.025327165847000E+000  2.075352746843400E+000  2.126613959690400E+000  2.179141324494800E+000 
 2.232966115209800E+000  2.288120378255500E+000  2.344636951598400E+000  2.402549484302900E+000 
 2.461892456565100E+000  2.522701200242300E+000  2.585011919888300E+000  2.648861714309500E+000 
 2.714288598653000E+000  2.781331527039700E+000  2.850030415757600E+000  2.920426167026800E+000 
 2.992560693352400E+000  3.066476942478200E+000  3.142218922957400E+000  3.219831730354400E+000 
 3.299361574094200E+000  3.380855804974300E+000  3.464362943357200E+000  3.549932708058100E+000 
 3.637616045947100E+000  3.727465162282000E+000  3.819533551790400E+000  3.913876030519600E+000 
 4.010548768473400E+000  4.109609323054700E+000  4.211116673334200E+000  4.315131255165500E+000 
 4.421714997168100E+000  4.530931357598200E+000  4.642845362130800E+000  4.757523642575500E+000 
 4.875034476547100E+000  4.995447828117800E+000  5.118835389472300E+000  5.245270623592300E+000 
 5.374828807995000E+000  5.507587079552500E+000  5.643624480417400E+000  5.783022005083700E+000 
 5.925862648609300E+000  6.072231456030000E+000  6.222215572993900E+000  6.375904297646800E+000 
 6.533389133798700E+000  6.694763845403500E+000  6.860124512385000E+000  7.029569587840900E+000 
 7.203199956660600E+000  7.381118995590100E+000  7.563432634781200E+000  7.750249420860300E+000 
 7.941680581555500E+000  8.137840091919900E+000  8.338844742190400E+000  8.544814207322499E+000 
 8.755871118243300E+000  8.972141134863900E+000  9.193753020895100E+000  9.420838720511201E+000 
 9.653533436907800E+000  9.891975712799400E+000  1.013630751290600E+001  1.038667430847400E+001 
 1.064322516389400E+001  1.090611282544200E+001  1.117549381223000E+001  1.145152850939200E+001 
 1.173438126357400E+001  1.202422048078500E+001  1.232121872666000E+001  1.262555282920900E+001 
 1.293740398409000E+001  1.325695786249700E+001  1.358440472170100E+001  1.391993951832700E+001 
 1.426376202442900E+001  1.461607694643300E+001  1.497709404701000E+001  1.534702826997100E+001 
 1.572609986823900E+001  1.611453453498500E+001  1.651256353799900E+001  1.692042385738700E+001 
 1.733835832666500E+001  1.776661577733300E+001  1.820545118703300E+001  1.865512583135300E+001 
 1.911590743938800E+001  1.958807035314000E+001  2.007189569086300E+001  2.056767151442700E+001 
 2.107569300083400E+001  2.159626261795400E+001  2.212969030461800E+001  2.267629365514200E+001 
 2.323639810842400E+001  2.381033714170200E+001  2.439845246910200E+001  2.500109424508900E+001 
 2.561862127294200E+001  2.625140121838400E+001  2.689981082847800E+001  2.756423615594200E+001 
 2.824507278899300E+001  2.894272608688100E+001  2.965761142122700E+001  3.039015442333200E+001 
 3.114079123758800E+001  3.190996878115600E+001  3.269814501005100E+001  3.350578919179900E+001 
 3.433338218483700E+001  3.518141672480200E+001  3.605039771790500E+001  3.694084254153700E+001 
 3.785328135231300E+001  3.878825740171500E+001  3.974632735953700E+001  4.072806164531800E+001 
 4.173404476795700E+001  4.276487567372600E+001  4.382116810286700E+001  4.490355095500800E+001 
 4.601266866359600E+001  4.714918157958700E+001  4.831376636460300E+001  4.950711639380900E+001 
 5.072994216873600E+001  5.198297174030400E+001  5.326695114228900E+001  5.458264483550400E+001 
 5.593083616294100E+001  5.731232781616500E+001  5.872794231322500E+001  6.017852248836100E+001 
 6.166493199382400E+001  6.318805581407100E+001  6.474880079267901E+001  6.634809617225800E+001 
 6.798689414771300E+001  6.966617043316100E+001  7.138692484286000E+001  7.315018188647900E+001 
 7.495699137907501E+001  7.680842906613800E+001  7.870559726407200E+001
    </PP_R>
    <PP_RAB type="real" size="567" columns="4">
 1.930370793001198E-006  1.978050951588337E-006  2.026908810092552E-006  2.076973457701846E-006 
 2.128274702107081E-006  2.180843087249133E-006  2.234709911504182E-006  2.289907246318318E-006 
 2.346467955302381E-006  2.404425713798373E-006  2.463815028929241E-006  2.524671260143676E-006 
 2.587030640269310E-006  2.650930297084052E-006  2.716408275421890E-006  2.783503559824773E-006 
 2.852256097752516E-006  2.922706823367080E-006  2.994897681904150E-006  3.068871654647152E-006 
 3.144672784516883E-006  3.222346202294551E-006  3.301938153491179E-006  3.383496025882388E-006 
 3.467068377721742E-006  3.552704966651438E-006  3.640456779327683E-006  3.730376061777069E-006 
 3.822516350503022E-006  3.916932504360586E-006  4.013680737218120E-006  4.112818651427350E-006 
 4.214405272117652E-006  4.318501082338970E-006  4.425168059072876E-006  4.534469710132024E-006 
 4.646471111972176E-006  4.761238948437756E-006  4.878841550464363E-006  4.999348936760710E-006 
 5.122832855498759E-006  5.249366827029619E-006  5.379026187657193E-006  5.511888134492249E-006 
 5.648031771414233E-006  5.787538156168183E-006  5.930490348625507E-006  6.076973460236695E-006 
 6.227074704704519E-006  6.380883449910652E-006  6.538491271123521E-006  6.699992005520105E-006 
 6.865481808056547E-006  7.035059208715656E-006  7.208825171170826E-006  7.386883152898818E-006 
 7.569339166775317E-006  7.756301844194757E-006  7.947882499746374E-006  8.144195197490148E-006 
 8.345356818868039E-006  8.551487132294160E-006  8.762708864461757E-006  8.979147773414016E-006 
 9.200932723417333E-006  9.428195761685765E-006  9.661072196999431E-006  9.899700680265119E-006 
 1.014422328706770E-005  1.039478560225842E-005  1.065153680663406E-005  1.091462976575788E-005 
 1.118422112097215E-005  1.146047138266017E-005  1.174354502581182E-005  1.203361058794956E-005 
 1.233084076947179E-005  1.263541253647784E-005  1.294750722612889E-005  1.326731065461406E-005 
 1.359501322778314E-005  1.393081005450946E-005  1.427490106285576E-005  1.462749111910838E-005 
 1.498879014975026E-005  1.535901326644916E-005  1.573838089413049E-005  1.612711890221545E-005 
 1.652545873910009E-005  1.693363756995586E-005  1.735189841793392E-005  1.778049030885672E-005 
 1.821966841948543E-005  1.866969422944673E-005  1.913083567691414E-005  1.960336731813399E-005 
 2.008757049089172E-005  2.058373348201685E-005  2.109215169902256E-005  2.161312784598855E-005 
 2.214697210378451E-005  2.269400231474800E-005  2.325454417192207E-005  2.382893141296860E-005 
 2.441750601886894E-005  2.502061841753465E-005  2.563862769244704E-005  2.627190179645162E-005 
 2.692081777082473E-005  2.758576196976223E-005  2.826713029041674E-005  2.896532840859081E-005 
 2.968077202028117E-005  3.041388708918381E-005  3.116511010028452E-005  3.193488831976397E-005 
 3.272368006126151E-005  3.353195495877327E-005  3.436019424625535E-005  3.520889104413945E-005 
 3.607855065292941E-005  3.696969085405673E-005  3.788284221815113E-005  3.881854842093858E-005 
 3.977736656693752E-005  4.075986752113873E-005  4.176663624891283E-005  4.279827216426010E-005 
 4.385538948671738E-005  4.493861760703918E-005  4.604860146193359E-005  4.718600191804328E-005 
 4.835149616541810E-005  4.954577812070366E-005  5.076955884028512E-005  5.202356694363983E-005 
 5.330854904714787E-005  5.462527020861399E-005  5.597451438276716E-005  5.735708488802067E-005 
 5.877380488475383E-005  6.022551786540805E-005  6.171308815668291E-005  6.323740143415418E-005 
 6.479936524957730E-005  6.639990957124245E-005  6.803998733765181E-005  6.972057502489023E-005 
 7.144267322800614E-005  7.320730725673726E-005  7.501552774597870E-005  7.686841128130571E-005 
 7.876706103995396E-005  8.071260744763993E-005  8.270620885159772E-005  8.474905221023216E-005 
 8.684235379982474E-005  8.898735993867852E-005  9.118534772916495E-005  9.343762581807558E-005 
 9.574553517578129E-005  9.811044989462327E-005  1.005337780070219E-004  1.030169623237933E-004 
 1.055614812931913E-004  1.081688498811331E-004  1.108406204731980E-004  1.135783837988867E-004 
 1.163837698787184E-004  1.192584489947237E-004  1.222041326848913E-004  1.252225747622099E-004 
 1.283155723588345E-004  1.314849669960992E-004  1.347326456809021E-004  1.380605420292200E-004 
 1.414706374173437E-004  1.449649621615514E-004  1.485455967269407E-004  1.522146729660955E-004 
 1.559743753883585E-004  1.598269424604529E-004  1.637746679392257E-004  1.678199022373245E-004 
 1.719650538225867E-004  1.762125906520038E-004  1.805650416411072E-004  1.850249981696439E-004 
 1.895951156244344E-004  1.942781149803566E-004  1.990767844203711E-004  2.039939809955557E-004 
 2.090326323261453E-004  2.141957383446019E-004  2.194863730817128E-004  2.249076864968311E-004 
 2.304629063533020E-004  2.361553401402302E-004  2.419883770416915E-004  2.479654899546214E-004 
 2.540902375564898E-004  2.603662664241490E-004  2.667973132048230E-004  2.733872068409915E-004 
 2.801398708499497E-004  2.870593256599508E-004  2.941496910037375E-004  3.014151883715357E-004 
 3.088601435243158E-004  3.164889890693721E-004  3.243062670993897E-004  3.323166318967331E-004 
 3.405248527045896E-004  3.489358165663850E-004  3.575545312355911E-004  3.663861281570999E-004 
 3.754358655225771E-004  3.847091314009917E-004  3.942114469465916E-004  4.039484696861783E-004 
 4.139259968874131E-004  4.241499690105479E-004  4.346264732450906E-004  4.453617471342622E-004 
 4.563621822884644E-004  4.676343281910027E-004  4.791848960973107E-004  4.910207630309199E-004 
 5.031489758777842E-004  5.155767555819632E-004  5.283115014448332E-004  5.413607955305356E-004 
 5.547324071801266E-004  5.684342976374787E-004  5.824746247891298E-004  5.968617480214214E-004 
 6.116042331975397E-004  6.267108577575306E-004  6.421906159441213E-004  6.580527241579584E-004 
 6.743066264446546E-004  6.909620001178401E-004  7.080287615207571E-004  7.255170719303000E-004 
 7.434373436069915E-004  7.618002459940918E-004  7.806167120701329E-004  7.998979448582721E-004 
 8.196554240962685E-004  8.399009130714540E-004  8.606464656243050E-004  8.819044333252297E-004 
 9.036874728283530E-004  9.260085534072264E-004  9.488809646763911E-004  9.723183245038962E-004 
 9.963345871191363E-004  1.020944051420965E-003  1.046161369491082E-003  1.072001555317507E-003 
 1.098479993733845E-003  1.125612449579074E-003  1.153415077083671E-003  1.181904429487632E-003 
 1.211097468895976E-003  1.241011576377716E-003  1.271664562314259E-003  1.303074677003406E-003 
 1.335260621525404E-003  1.368241558877071E-003  1.402037125381337E-003  1.436667442378251E-003 
 1.472153128204984E-003  1.508515310471656E-003  1.545775638640310E-003  1.583956296914731E-003 
 1.623080017448527E-003  1.663170093879501E-003  1.704250395198321E-003  1.746345379959728E-003 
 1.789480110844729E-003  1.833680269582589E-003  1.878972172241267E-003  1.925382784895631E-003 
 1.972939739682560E-003  2.021671351252713E-003  2.071606633628657E-003  2.122775317479298E-003 
 2.175207867821033E-003  2.228935502156200E-003  2.283990209059455E-003  2.340404767223223E-003 
 2.398212764973656E-003  2.457448620268487E-003  2.518147601189247E-003  2.580345846938400E-003 
 2.644080389357889E-003  2.709389174975046E-003  2.776311087596888E-003  2.844885971460487E-003 
 2.915154654955512E-003  2.987158974933106E-003  3.060941801613780E-003  3.136547064113843E-003 
 3.214019776597438E-003  3.293406065079341E-003  3.374753194886778E-003  3.458109598800556E-003 
 3.543524905890843E-003  3.631049971066410E-003  3.720736905351716E-003  3.812639106913808E-003 
 3.906811292854638E-003  4.003309531788085E-003  4.102191277223392E-003  4.203515401770636E-003 
 4.307342232194339E-003  4.413733585329609E-003  4.522752804887419E-003  4.634464799168053E-003 
 4.748936079707345E-003  4.866234800876241E-003  4.986430800457806E-003  5.109595641229266E-003 
 5.235802653567629E-003  5.365126979110599E-003  5.497645615494743E-003  5.633437462197507E-003 
 5.772583367513593E-003  5.915166176691296E-003  6.061270781255656E-003  6.210984169552576E-003 
 6.364395478540518E-003  6.521596046860489E-003  6.682679469218034E-003  6.847741652107686E-003 
 7.016880870914568E-003  7.190197828426284E-003  7.367795714788334E-003  7.549780268943757E-003 
 7.736259841586538E-003  7.927345459673706E-003  8.123150892527783E-003  8.323792719573075E-003 
 8.529390399746515E-003  8.740066342620409E-003  8.955945981282937E-003  9.177157847020849E-003 
 9.403833645842137E-003  9.636108336894355E-003  9.874120212815626E-003  1.011801098207232E-002 
 1.036792585332946E-002  1.062401362190660E-002  1.088642675836772E-002  1.115532149929953E-002 
 1.143085794033214E-002  1.171320013145844E-002  1.200251617470539E-002  1.229897832422062E-002 
 1.260276308882885E-002  1.291405133712291E-002  1.323302840514995E-002  1.355988420675706E-002 
 1.389481334666390E-002  1.423801523632665E-002  1.458969421266386E-002  1.495005965971656E-002 
 1.531932613331163E-002  1.569771348880447E-002  1.608544701197785E-002  1.648275755317366E-002 
 1.688988166473724E-002  1.730706174185621E-002  1.773454616687997E-002  1.817258945720199E-002 
 1.862145241679488E-002  1.908140229148976E-002  1.955271292808941E-002  2.003566493741319E-002 
 2.053054586136746E-002  2.103765034414321E-002  2.155728030764349E-002  2.208974513124222E-002 
 2.263536183598404E-002  2.319445527333287E-002  2.376735831858415E-002  2.435441206905317E-002 
 2.495596604715877E-002  2.557237840852384E-002  2.620401615521474E-002  2.685125535424717E-002 
 2.751448136149805E-002  2.819408905112791E-002  2.889048305068845E-002  2.960407798204213E-002 
 3.033529870819874E-002  3.108458058629100E-002  3.185236972677211E-002  3.263912325902316E-002 
 3.344530960352168E-002  3.427140875072743E-002  3.511791254687098E-002  3.598532498677922E-002 
 3.687416251395242E-002  3.778495432804680E-002  3.871824269995019E-002  3.967458329463897E-002 
 4.065454550201607E-002  4.165871277591572E-002  4.268768298147974E-002  4.374206875112262E-002 
 4.482249784927565E-002  4.592961354615416E-002  4.706407500074304E-002  4.822655765326157E-002 
 4.941775362729794E-002  5.063837214189170E-002  5.188913993379564E-002  5.317080169016154E-002 
 5.448412049190801E-002  5.582987826805857E-002  5.720887626127935E-002  5.862193550493343E-002 
 6.006989731190330E-002  6.155362377550833E-002  6.307399828276375E-002  6.463192604034702E-002 
 6.622833461354494E-002  6.786417447849880E-002  6.954041958811819E-002  7.125806795194439E-002 
 7.301814223035835E-002  7.482169034344810E-002  7.666978609493098E-002  7.856352981147462E-002 
 8.050404899781917E-002  8.249249900806464E-002  8.453006373356468E-002  8.661795630778318E-002 
 8.875741982858457E-002  9.094972809835077E-002  9.319618638238088E-002  9.549813218602513E-002 
 9.785693605101911E-002  1.002740023714795E-001  1.027507702300562E-001  1.052887142547373E-001 
 1.078893454968295E-001  1.105542123306024E-001  1.132849013751665E-001  1.160830384391348E-001 
 1.189502894885810E-001  1.218883616389486E-001  1.248990041714304E-001  1.279840095744656E-001 
 1.311452146109542E-001  1.343845014118453E-001  1.377037985967168E-001  1.411050824220554E-001 
 1.445903779578810E-001  1.481617602934419E-001  1.518213557726889E-001  1.555713432602731E-001 
 1.594139554388024E-001  1.633514801381402E-001  1.673862616975531E-001  1.715207023614824E-001 
 1.757572637098117E-001  1.800984681234437E-001  1.845469002860933E-001  1.891052087231599E-001 
 1.937761073786208E-001  1.985623772308722E-001  2.034668679484767E-001  2.084924995868040E-001 
 2.136422643265964E-001  2.189192282554631E-001  2.243265331933746E-001  2.298673985632507E-001 
 2.355451233077623E-001  2.413630878534635E-001  2.473247561234552E-001  2.534336775996855E-001 
 2.596934894364146E-001  2.661079186254897E-001  2.726807842155290E-001  2.794159995856507E-001 
 2.863175747754167E-001  2.933896188723871E-001  3.006363424585255E-001  3.080620601172632E-001 
 3.156711930021484E-001  3.234682714693008E-001  3.314579377746005E-001  3.396449488376328E-001 
 3.480341790739058E-001  3.566306232970460E-001  3.654393996924856E-001  3.744657528648864E-001 
 3.837150569606422E-001  3.931928188675822E-001  4.029046814936083E-001  4.128564271264863E-001 
 4.230539808765237E-001  4.335034142041587E-001  4.442109485349983E-001  4.551829589638198E-001 
 4.664259780502403E-001  4.779466997080596E-001  4.897519831908594E-001  5.018488571756661E-001 
 5.142445239479209E-001  5.269463636894199E-001  5.399619388725616E-001  5.532989987627124E-001 
 5.669654840321512E-001  5.809695314877436E-001  5.953194789154899E-001  6.100238700447068E-001 
 6.250914596347941E-001  6.405312186877816E-001  6.563523397893677E-001  6.725642425821796E-001 
 6.891765793739407E-001  7.061992408844739E-001  7.236423621343214E-001  7.415163284790560E-001 
 7.598317817924815E-001  7.785996268027453E-001  7.978310375847840E-001  8.175374642131220E-001 
 8.377306395791998E-001  8.584225863767945E-001  8.796256242603108E-001  9.013523771795343E-001 
 9.236157808958696E-001  9.464290906839945E-001  9.698058892238803E-001  9.937600946877209E-001 
 1.018305969026499E+000  1.043458126461465E+000  1.069231542185062E+000  1.095641561277038E+000 
 1.122703907840563E+000  1.150434694364230E+000  1.178850431315031E+000  1.207968036968520E+000 
 1.237804847481640E+000  1.268378627214442E+000  1.299707579306626E+000  1.331810356515511E+000 
 1.364706072321446E+000  1.398414312307770E+000  1.432955145821789E+000  1.468349137923571E+000 
 1.504617361630296E+000  1.541781410462553E+000  1.579863411300989E+000  1.618886037560119E+000 
 1.658872522687860E+000  1.699846673998237E+000  1.741832886845992E+000  1.784856159151097E+000 
 1.828942106282128E+000  1.874116976307293E+000  1.920407665622092E+000
    </PP_RAB>
  </PP_MESH>
  <PP_LOCAL type="real" size="567" columns="4">
-1.268171689619300E+001 -1.268171695653380E+001 -1.268171701541780E+001 -1.268171707287980E+001 
-1.268171712895420E+001 -1.268171718367420E+001 -1.268171723707240E+001 -1.268171728918040E+001 
-1.268171734002920E+001 -1.268171738964900E+001 -1.268171743806940E+001 -1.268171748531880E+001 