--------------------------------------------------------------------------
[[10632,1],4]: A high-performance Open MPI point-to-point messaging module
was unable to find any relevant network interfaces:

Module: OpenFabrics (openib)
  Host: muzuan

Another transport will be used instead, although this may result in
lower performance.

NOTE: You can disable this warning by setting the MCA parameter
btl_base_warn_component_unused to 0.
--------------------------------------------------------------------------

     Program PWSCF v.7.2 starts on 25May2023 at  9:56:29 
        Git branch: develop
        Last git commit: 6c803470bc754885ff315c5fb5ba669cf3760c2e
        Last git commit date: Tue Apr 18 18:33:20 2023 +0000
        Last git commit subject: Merge branch 'upftype' into 'develop'

     This program is part of the open-source Quantum ESPRESSO suite
     for quantum simulation of materials; please cite
         "P. Giannozzi et al., J. Phys.:Condens. Matter 21 395502 (2009);
         "P. Giannozzi et al., J. Phys.:Condens. Matter 29 465901 (2017);
         "P. Giannozzi et al., J. Chem. Phys. 152 154105 (2020);
          URL http://www.quantum-espresso.org", 
     in publications or presentations arising from this work. More details at
     http://www.quantum-espresso.org/quote

     Parallel version (MPI), running on     8 processors

     MPI processes distributed on     1 nodes
     241661 MiB available memory on the printing compute node when the environment starts

     Waiting for input...
     Reading input from standard input

     Current dimensions of program PWSCF are:
     Max number of different atomic species (ntypx) = 10
     Max number of k-points (npk) =  40000
     Max angular momentum in pseudopotentials (lmaxx) =  4

     R & G space division:  proc/nbgrp/npool/nimage =       8
     Subspace diagonalization in iterative solution of the eigenvalue problem:
     a serial algorithm will be used


     Parallelization info
     --------------------
     sticks:   dense  smooth     PW     G-vecs:    dense   smooth      PW
     Min         389     389    108                14416    14416    2143
     Max         390     390    110                14419    14419    2145
     Sum        3115    3115    871               115339   115339   17153

     Using Slab Decomposition



     bravais-lattice index     =            2
     lattice parameter (alat)  =       7.1000  a.u.
     unit-cell volume          =      89.4777 (a.u.)^3
     number of atoms/cell      =            2
     number of atomic types    =            2
     number of electrons       =         4.00
     number of Kohn-Sham states=            6
     kinetic-energy cutoff     =     450.0000  Ry
     charge density cutoff     =    1800.0000  Ry
     scf convergence threshold =      1.0E-10
     mixing beta               =       0.7000
     number of iterations used =            8  plain     mixing
     Exchange-correlation= PBE
                           (   1   4   3   4   0   0   0)

     celldm(1)=   7.100000  celldm(2)=   0.000000  celldm(3)=   0.000000
     celldm(4)=   0.000000  celldm(5)=   0.000000  celldm(6)=   0.000000

     crystal axes: (cart. coord. in units of alat)
               a(1) = (  -0.500000   0.000000   0.500000 )  
               a(2) = (   0.000000   0.500000   0.500000 )  
               a(3) = (  -0.500000   0.500000   0.000000 )  

     reciprocal axes: (cart. coord. in units 2 pi/alat)
               b(1) = ( -1.000000 -1.000000  1.000000 )  
               b(2) = (  1.000000  1.000000  1.000000 )  
               b(3) = ( -1.000000  1.000000 -1.000000 )  


     PseudoPot. # 1 for Li read from file:
     ../../Li_ONCV_PBE_sr.upf
     MD5 check sum: 014bfd9b71e8402e60e69f4a345650ec
     Pseudo is Norm-conserving, Zval =  3.0
     Generated using ONCVPSP code by D. R. Hamann
     Using radial grid of 1944 points,  4 beta functions with: 
                l(1) =   0
                l(2) =   0
                l(3) =   1
                l(4) =   1

     PseudoPot. # 2 for H  read from file:
     ../../H_ONCV_PBE_sr.upf
     MD5 check sum: 8975ef619c0c80d0ef0fa21f3286b90d
     Pseudo is Norm-conserving, Zval =  1.0
     Generated using ONCVPSP code by D. R. Hamann
     Using radial grid of 1166 points,  2 beta functions with: 
                l(1) =   0
                l(2) =   0

     atomic species   valence    mass     pseudopotential
        Li             3.00     9.01000     Li( 1.00)
        H              1.00     1.01000     H ( 1.00)

     48 Sym. Ops., with inversion, found



   Cartesian axes

     site n.     atom                  positions (alat units)
         1           Li  tau(   1) = (   0.0000000   0.0000000   0.0000000  )
         2           H   tau(   2) = (   0.5000000   0.5000000   0.5000000  )

     number of k points=    60  Methfessel-Paxton smearing, width (Ry)=  0.0010
                       cart. coord. in units 2pi/alat
        k(    1) = (  -0.0625000   0.0625000   0.0625000), wk =   0.0078125
        k(    2) = (  -0.1875000   0.1875000  -0.0625000), wk =   0.0234375
        k(    3) = (  -0.3125000   0.3125000  -0.1875000), wk =   0.0234375
        k(    4) = (  -0.4375000   0.4375000  -0.3125000), wk =   0.0234375
        k(    5) = (   0.4375000  -0.4375000   0.5625000), wk =   0.0234375
        k(    6) = (   0.3125000  -0.3125000   0.4375000), wk =   0.0234375
        k(    7) = (   0.1875000  -0.1875000   0.3125000), wk =   0.0234375
        k(    8) = (   0.0625000  -0.0625000   0.1875000), wk =   0.0234375
        k(    9) = (  -0.0625000   0.3125000   0.0625000), wk =   0.0234375
        k(   10) = (  -0.1875000   0.4375000  -0.0625000), wk =   0.0468750
        k(   11) = (  -0.3125000   0.5625000  -0.1875000), wk =   0.0468750
        k(   12) = (   0.5625000  -0.3125000   0.6875000), wk =   0.0468750
        k(   13) = (   0.4375000  -0.1875000   0.5625000), wk =   0.0468750
        k(   14) = (   0.3125000  -0.0625000   0.4375000), wk =   0.0468750
        k(   15) = (   0.1875000   0.0625000   0.3125000), wk =   0.0468750
        k(   16) = (  -0.0625000   0.5625000   0.0625000), wk =   0.0234375
        k(   17) = (  -0.1875000   0.6875000  -0.0625000), wk =   0.0468750
        k(   18) = (   0.6875000  -0.1875000   0.8125000), wk =   0.0468750
        k(   19) = (   0.5625000  -0.0625000   0.6875000), wk =   0.0468750
        k(   20) = (   0.4375000   0.0625000   0.5625000), wk =   0.0468750
        k(   21) = (   0.3125000   0.1875000   0.4375000), wk =   0.0468750
        k(   22) = (  -0.0625000   0.8125000   0.0625000), wk =   0.0234375
        k(   23) = (   0.8125000  -0.0625000   0.9375000), wk =   0.0468750
        k(   24) = (   0.6875000   0.0625000   0.8125000), wk =   0.0468750
        k(   25) = (   0.5625000   0.1875000   0.6875000), wk =   0.0468750
        k(   26) = (   0.4375000   0.3125000   0.5625000), wk =   0.0468750
        k(   27) = (  -0.0625000  -0.9375000   0.0625000), wk =   0.0234375
        k(   28) = (  -0.1875000  -0.8125000  -0.0625000), wk =   0.0468750
        k(   29) = (  -0.3125000  -0.6875000  -0.1875000), wk =   0.0468750
        k(   30) = (  -0.0625000  -0.6875000   0.0625000), wk =   0.0234375
        k(   31) = (  -0.1875000  -0.5625000  -0.0625000), wk =   0.0468750
        k(   32) = (  -0.0625000  -0.4375000   0.0625000), wk =   0.0234375
        k(   33) = (  -0.1875000   0.1875000   0.1875000), wk =   0.0078125
        k(   34) = (  -0.3125000   0.3125000   0.0625000), wk =   0.0234375
        k(   35) = (  -0.4375000   0.4375000  -0.0625000), wk =   0.0234375
        k(   36) = (   0.4375000  -0.4375000   0.8125000), wk =   0.0234375
        k(   37) = (   0.3125000  -0.3125000   0.6875000), wk =   0.0234375
        k(   38) = (   0.1875000  -0.1875000   0.5625000), wk =   0.0234375
        k(   39) = (  -0.1875000   0.4375000   0.1875000), wk =   0.0234375
        k(   40) = (  -0.3125000   0.5625000   0.0625000), wk =   0.0468750
        k(   41) = (   0.5625000  -0.3125000   0.9375000), wk =   0.0468750
        k(   42) = (   0.4375000  -0.1875000   0.8125000), wk =   0.0468750
        k(   43) = (   0.3125000  -0.0625000   0.6875000), wk =   0.0468750
        k(   44) = (  -0.1875000   0.6875000   0.1875000), wk =   0.0234375
        k(   45) = (   0.6875000  -0.1875000   1.0625000), wk =   0.0468750
        k(   46) = (   0.5625000  -0.0625000   0.9375000), wk =   0.0468750
        k(   47) = (   0.4375000   0.0625000   0.8125000), wk =   0.0468750
        k(   48) = (  -0.1875000  -1.0625000   0.1875000), wk =   0.0234375
        k(   49) = (  -0.3125000  -0.9375000   0.0625000), wk =   0.0468750
        k(   50) = (  -0.1875000  -0.8125000   0.1875000), wk =   0.0234375
        k(   51) = (  -0.3125000   0.3125000   0.3125000), wk =   0.0078125
        k(   52) = (  -0.4375000   0.4375000   0.1875000), wk =   0.0234375
        k(   53) = (   0.4375000  -0.4375000   1.0625000), wk =   0.0234375
        k(   54) = (   0.3125000  -0.3125000   0.9375000), wk =   0.0234375
        k(   55) = (  -0.3125000   0.5625000   0.3125000), wk =   0.0234375
        k(   56) = (   0.5625000  -0.3125000   1.1875000), wk =   0.0468750
        k(   57) = (   0.4375000  -0.1875000   1.0625000), wk =   0.0468750
        k(   58) = (  -0.3125000  -1.1875000   0.3125000), wk =   0.0234375
        k(   59) = (  -0.4375000   0.4375000   0.4375000), wk =   0.0078125
        k(   60) = (   0.4375000  -0.4375000   1.3125000), wk =   0.0234375

     Dense  grid:   115339 G-vectors     FFT dimensions: (  72,  72,  72)

     Estimated max dynamical RAM per process >      22.59 MB

     Estimated total dynamical RAM >     180.75 MB

     Initial potential from superposition of free atoms

     starting charge       3.9954, renormalised to       4.0000
     Starting wfcs are    3 randomized atomic wfcs +    3 random wfcs

     total cpu time spent up to now is        1.0 secs

     per-process dynamical memory:    26.4 Mb

     Self-consistent Calculation

     iteration #  1     ecut=   450.00 Ry     beta= 0.70
     Davidson diagonalization with overlap
     ethr =  1.00E-02,  avg # of iterations =  5.9

     total cpu time spent up to now is        2.9 secs

     total energy              =     -15.46406387 Ry
     estimated scf accuracy    <       0.05326517 Ry

     iteration #  2     ecut=   450.00 Ry     beta= 0.70
     Davidson diagonalization with overlap
     ethr =  1.33E-03,  avg # of iterations =  1.0

     total cpu time spent up to now is        3.9 secs

     total energy              =     -15.46810432 Ry
     estimated scf accuracy    <       0.00038233 Ry

     iteration #  3     ecut=   450.00 Ry     beta= 0.70
     Davidson diagonalization with overlap
     ethr =  9.56E-06,  avg # of iterations =  2.9

     total cpu time spent up to now is        5.1 secs

     total energy              =     -15.46817265 Ry
     estimated scf accuracy    <       0.00001018 Ry

     iteration #  4     ecut=   450.00 Ry     beta= 0.70
     Davidson diagonalization with overlap
     ethr =  2.54E-07,  avg # of iterations =  2.0

     total cpu time spent up to now is        6.2 secs

     total energy              =     -15.46817426 Ry
     estimated scf accuracy    <       0.00000009 Ry

     iteration #  5     ecut=   450.00 Ry     beta= 0.70
     Davidson diagonalization with overlap
     ethr =  2.36E-09,  avg # of iterations =  1.1

     total cpu time spent up to now is        7.1 secs

     total energy              =     -15.46817427 Ry
     estimated scf accuracy    <          2.8E-09 Ry

     iteration #  6     ecut=   450.00 Ry     beta= 0.70
     Davidson diagonalization with overlap
     ethr =  6.97E-11,  avg # of iterations =  2.0

     total cpu time spent up to now is        8.2 secs

     End of self-consistent calculation

          k =-0.0625 0.0625 0.0625 ( 14331 PWs)   bands (ev):

   -42.3621  -4.3212  19.6754  21.4047  21.5937  21.5937

          k =-0.1875 0.1875-0.0625 ( 14395 PWs)   bands (ev):

   -42.3443  -3.9366  16.6935  18.6212  20.9366  22.0609

          k =-0.3125 0.3125-0.1875 ( 14408 PWs)   bands (ev):

   -42.3099  -3.0221  11.9151  17.3114  19.7788  21.4477

          k =-0.4375 0.4375-0.3125 ( 14412 PWs)   bands (ev):

   -42.2790  -1.8531   8.3544  16.5463  19.3733  20.4468

          k = 0.4375-0.4375 0.5625 ( 14421 PWs)   bands (ev):

   -42.2697  -1.3720   7.2624  16.4412  19.2880  19.8412

          k = 0.3125-0.3125 0.4375 ( 14422 PWs)   bands (ev):

   -42.2875  -2.2287   9.3329  17.1034  18.7375  20.7875

          k = 0.1875-0.1875 0.3125 ( 14409 PWs)   bands (ev):

   -42.3220  -3.3747  13.4161  18.4599  19.0242  21.7325

          k = 0.0625-0.0625 0.1875 ( 14376 PWs)   bands (ev):

   -42.3529  -4.1268  18.2456  20.1115  20.1145  22.4962

          k =-0.0625 0.3125 0.0625 ( 14388 PWs)   bands (ev):

   -42.3359  -3.7285  16.5377  18.3584  18.4174  22.5738

          k =-0.1875 0.4375-0.0625 ( 14402 PWs)   bands (ev):

   -42.3083  -2.9435  13.4011  15.1940  17.9113  21.9374

          k =-0.3125 0.5625-0.1875 ( 14431 PWs)   bands (ev):

   -42.2776  -1.7378   9.3703  13.8982  17.2267  20.7126

          k = 0.5625-0.3125 0.6875 ( 14431 PWs)   bands (ev):

   -42.2619  -0.8232   7.2696  13.2029  17.4082  19.8720

          k = 0.4375-0.1875 0.5625 ( 14422 PWs)   bands (ev):

   -42.2703  -1.3617   8.4305  13.1877  18.1539  20.0755

          k = 0.3125-0.0625 0.4375 ( 14413 PWs)   bands (ev):

   -42.2980  -2.6018  12.0669  13.8396  19.0416  21.4978

          k = 0.1875 0.0625 0.3125 ( 14398 PWs)   bands (ev):

   -42.3286  -3.5472  15.0641  16.9214  19.7118  22.4013

          k =-0.0625 0.5625 0.0625 ( 14390 PWs)   bands (ev):

   -42.2904  -2.2561  12.0162  14.9940  15.6483  19.9310

          k =-0.1875 0.6875-0.0625 ( 14416 PWs)   bands (ev):

   -42.2667  -1.0438   9.2784  12.4164  15.1875  20.9270

          k = 0.6875-0.1875 0.8125 ( 14433 PWs)   bands (ev):

   -42.2511   0.1955   7.0920  10.5472  15.3799  20.6291

          k = 0.5625-0.0625 0.6875 ( 14448 PWs)   bands (ev):

   -42.2527  -0.0155   7.5467   9.9273  16.4231  20.1883

          k = 0.4375 0.0625 0.5625 ( 14433 PWs)   bands (ev):

   -42.2706  -1.3578   9.5262  11.4098  17.9908  20.2852

          k = 0.3125 0.1875 0.4375 ( 14426 PWs)   bands (ev):

   -42.2943  -2.4784  10.5726  15.7482  18.7461  21.1648

          k =-0.0625 0.8125 0.0625 ( 14415 PWs)   bands (ev):

   -42.2526   0.1644   6.9500  13.2844  14.0596  18.2987

          k = 0.8125-0.0625 0.9375 ( 14428 PWs)   bands (ev):

   -42.2436   1.4146   5.3277  11.3447  14.1458  20.1399

          k = 0.6875 0.0625 0.8125 ( 14432 PWs)   bands (ev):

   -42.2450   1.0052   6.1550   9.8445  15.0414  20.6823

          k = 0.5625 0.1875 0.6875 ( 14446 PWs)   bands (ev):

   -42.2559  -0.3236   7.2546  11.2947  16.7389  20.0371

          k = 0.4375 0.3125 0.5625 ( 14423 PWs)   bands (ev):

   -42.2699  -1.3676   7.6535  15.1272  18.5091  19.8929

          k =-0.0625-0.9375 0.0625 ( 14442 PWs)   bands (ev):

   -42.2438   1.4786   5.0518  12.9531  13.7394  17.9710

          k =-0.1875-0.8125-0.0625 ( 14424 PWs)   bands (ev):

   -42.2517   0.2174   7.0521  11.6937  14.4860  20.4225

          k =-0.3125-0.6875-0.1875 ( 14427 PWs)   bands (ev):

   -42.2625  -0.8177   8.2398  11.9920  16.0852  20.5928

          k =-0.0625-0.6875 0.0625 ( 14400 PWs)   bands (ev):

   -42.2689  -1.1559   9.3903  13.9548  14.6978  18.9530

          k =-0.1875-0.5625-0.0625 ( 14401 PWs)   bands (ev):

   -42.2866  -2.1104  11.5082  13.5845  16.3093  21.4471

          k =-0.0625-0.4375 0.0625 ( 14392 PWs)   bands (ev):

   -42.3140  -3.1107  14.5045  16.4843  16.8984  21.2221

          k =-0.1875 0.1875 0.1875 ( 14398 PWs)   bands (ev):

   -42.3365  -3.7522  15.0125  19.7424  20.6720  20.6720

          k =-0.3125 0.3125 0.0625 ( 14409 PWs)   bands (ev):

   -42.3153  -3.1761  13.5336  15.3711  20.1915  22.1622

          k =-0.4375 0.4375-0.0625 ( 14426 PWs)   bands (ev):

   -42.2847  -2.0748  10.7196  12.6628  19.7215  20.0090

          k = 0.4375-0.4375 0.8125 ( 14447 PWs)   bands (ev):

   -42.2627  -0.8738   7.6968  12.3732  17.8850  19.6075

          k = 0.3125-0.3125 0.6875 ( 14437 PWs)   bands (ev):

   -42.2621  -0.8206   7.5952  12.8851  16.6176  20.0875

          k = 0.1875-0.1875 0.5625 ( 14424 PWs)   bands (ev):

   -42.2834  -1.9873  10.4475  14.2585  16.2867  20.9766

          k =-0.1875 0.4375 0.1875 ( 14419 PWs)   bands (ev):

   -42.3033  -2.7904  11.9206  16.4895  17.5263  21.4751

          k =-0.3125 0.5625 0.0625 ( 14423 PWs)   bands (ev):

   -42.2796  -1.8132  10.6678  12.2310  17.2851  21.2525

          k = 0.5625-0.3125 0.9375 ( 14440 PWs)   bands (ev):

   -42.2578  -0.4702   8.5410   9.9667  16.5404  20.7420

          k = 0.4375-0.1875 0.8125 ( 14445 PWs)   bands (ev):

   -42.2509   0.1839   7.2098   9.9555  15.9983  20.6734

          k = 0.3125-0.0625 0.6875 ( 14430 PWs)   bands (ev):

   -42.2628  -0.8161   9.1035  10.8242  15.9652  21.2979

          k =-0.1875 0.6875 0.1875 ( 14425 PWs)   bands (ev):

   -42.2652  -0.9683   8.8211  12.4145  15.3419  20.7020

          k = 0.6875-0.1875 1.0625 ( 14423 PWs)   bands (ev):

   -42.2501   0.3265   7.3157   9.9775  15.1711  21.4443

          k = 0.5625-0.0625 0.9375 ( 14446 PWs)   bands (ev):

   -42.2430   1.2561   6.7992   8.0809  15.3114  21.5628

          k = 0.4375 0.0625 0.8125 ( 14436 PWs)   bands (ev):

   -42.2482   0.4978   7.6474   8.6695  15.6900  21.2217

          k =-0.1875-1.0625 0.1875 ( 14431 PWs)   bands (ev):

   -42.2441   1.2593   5.5935  10.7967  14.3878  20.4654

          k =-0.3125-0.9375 0.0625 ( 14430 PWs)   bands (ev):

   -42.2433   1.3222   5.9071   9.5949  14.8015  21.5511

          k =-0.1875-0.8125 0.1875 ( 14420 PWs)   bands (ev):

   -42.2514   0.2093   7.0348  11.2933  14.7067  20.5481

          k =-0.3125 0.3125 0.3125 ( 14401 PWs)   bands (ev):

   -42.3001  -2.7085  10.5165  18.2072  20.1248  20.1248

          k =-0.4375 0.4375 0.1875 ( 14421 PWs)   bands (ev):

   -42.2826  -2.0009   9.4008  14.5745  19.4845  20.2157

          k = 0.4375-0.4375 1.0625 ( 14436 PWs)   bands (ev):

   -42.2612  -0.7473   8.4146  10.7583  17.5850  19.7459

          k = 0.3125-0.3125 0.9375 ( 14438 PWs)   bands (ev):

   -42.2482   0.5081   6.7022   9.9905  15.6776  20.1867

          k =-0.3125 0.5625 0.3125 ( 14437 PWs)   bands (ev):

   -42.2742  -1.5873   8.3603  15.1000  17.5421  20.2833

          k = 0.5625-0.3125 1.1875 ( 14437 PWs)   bands (ev):

   -42.2592  -0.5967   7.6904  11.5518  16.7910  20.3498

          k = 0.4375-0.1875 1.0625 ( 14442 PWs)   bands (ev):

   -42.2464   0.7317   7.0008   8.9022  15.6432  20.9064

          k =-0.3125-1.1875 0.3125 ( 14431 PWs)   bands (ev):

   -42.2531  -0.0395   7.0336  11.0470  15.9923  20.1190

          k =-0.4375 0.4375 0.4375 ( 14413 PWs)   bands (ev):

   -42.2744  -1.6369   7.6339  17.3516  20.1373  20.1373

          k = 0.4375-0.4375 1.3125 ( 14425 PWs)   bands (ev):

   -42.2656  -1.0991   7.2746  14.4584  18.4701  19.5166

     the Fermi energy is     2.3324 ev

!    total energy              =     -15.46817427 Ry
     estimated scf accuracy    <          2.7E-11 Ry
     smearing contrib. (-TS)   =       0.00000000 Ry
     internal energy E=F+TS    =     -15.46817427 Ry

     The total energy is F=E-TS. E is the sum of the following terms:
     one-electron contribution =      -6.90598736 Ry
     hartree contribution      =       2.90324237 Ry
     xc contribution           =      -4.08697603 Ry
     ewald contribution        =      -7.37845325 Ry

     convergence has been achieved in   6 iterations


     Computing stress (Cartesian axis) and pressure

          total   stress  (Ry/bohr**3)                   (kbar)     P=       98.08
   0.00066674  -0.00000000  -0.00000000           98.08       -0.00       -0.00
  -0.00000000   0.00066674   0.00000000           -0.00       98.08        0.00
  -0.00000000   0.00000000   0.00066674           -0.00        0.00       98.08


     Writing all to output data dir out/LiH.save/

     init_run     :      0.91s CPU      0.94s WALL (       1 calls)
     electrons    :      6.72s CPU      7.17s WALL (       1 calls)
     stress       :      0.41s CPU      0.42s WALL (       1 calls)

     Called by init_run:
     wfcinit      :      0.37s CPU      0.40s WALL (       1 calls)
     potinit      :      0.05s CPU      0.05s WALL (       1 calls)
     hinit0       :      0.37s CPU      0.37s WALL (       1 calls)

     Called by electrons:
     c_bands      :      5.56s CPU      5.91s WALL (       6 calls)
     sum_band     :      1.02s CPU      1.10s WALL (       6 calls)
     v_of_rho     :      0.14s CPU      0.16s WALL (       7 calls)
     mix_rho      :      0.01s CPU      0.01s WALL (       6 calls)

     Called by c_bands:
     init_us_2    :      0.20s CPU      0.21s WALL (     840 calls)
     init_us_2:cp :      0.20s CPU      0.21s WALL (     840 calls)
     cegterg      :      5.40s CPU      5.74s WALL (     360 calls)

     Called by *egterg:
     cdiaghg      :      0.05s CPU      0.05s WALL (    1252 calls)
     h_psi        :      5.39s CPU      5.74s WALL (    1312 calls)
     g_psi        :      0.02s CPU      0.02s WALL (     892 calls)

     Called by h_psi:
     h_psi:calbec :      0.07s CPU      0.08s WALL (    1312 calls)
     vloc_psi     :      5.26s CPU      5.60s WALL (    1312 calls)
     add_vuspsi   :      0.05s CPU      0.05s WALL (    1312 calls)

     General routines
     calbec       :      0.08s CPU      0.08s WALL (    1372 calls)
     fft          :      0.36s CPU      0.36s WALL (      75 calls)
     ffts         :      0.00s CPU      0.00s WALL (       6 calls)
     fftw         :      5.62s CPU      5.99s WALL (   14102 calls)

     Parallel routines

     PWSCF        :      8.19s CPU      8.73s WALL


   This run was terminated on:   9:56:38  25May2023            

=------------------------------------------------------------------------------=
   JOB DONE.
=------------------------------------------------------------------------------=
