--------------------------------------------------------------------------
[[13986,1],3]: A high-performance Open MPI point-to-point messaging module
was unable to find any relevant network interfaces:

Module: OpenFabrics (openib)
  Host: muzuan

Another transport will be used instead, although this may result in
lower performance.

NOTE: You can disable this warning by setting the MCA parameter
btl_base_warn_component_unused to 0.
--------------------------------------------------------------------------

     Program PWSCF v.7.2 starts on 25May2023 at 10:46: 3 
        Git branch: develop
        Last git commit: 6c803470bc754885ff315c5fb5ba669cf3760c2e
        Last git commit date: Tue Apr 18 18:33:20 2023 +0000
        Last git commit subject: Merge branch 'upftype' into 'develop'

     This program is part of the open-source Quantum ESPRESSO suite
     for quantum simulation of materials; please cite
         "P. Giannozzi et al., J. Phys.:Condens. Matter 21 395502 (2009);
         "P. Giannozzi et al., J. Phys.:Condens. Matter 29 465901 (2017);
         "P. Giannozzi et al., J. Chem. Phys. 152 154105 (2020);
          URL http://www.quantum-espresso.org", 
     in publications or presentations arising from this work. More details at
     http://www.quantum-espresso.org/quote

     Parallel version (MPI), running on     8 processors

     MPI processes distributed on     1 nodes
     241221 MiB available memory on the printing compute node when the environment starts

     Waiting for input...
     Reading input from standard input

     Current dimensions of program PWSCF are:
     Max number of different atomic species (ntypx) = 10
     Max number of k-points (npk) =  40000
     Max angular momentum in pseudopotentials (lmaxx) =  4

     Atomic positions and unit cell read from directory:
     out/LiH.save/


     R & G space division:  proc/nbgrp/npool/nimage =       8
     Subspace diagonalization in iterative solution of the eigenvalue problem:
     a serial algorithm will be used


     Parallelization info
     --------------------
     sticks:   dense  smooth     PW     G-vecs:    dense   smooth      PW
     Min         389     389    105                14416    14416    2016
     Max         390     390    106                14419    14419    2019
     Sum        3115    3115    847               115339   115339   16145

     Using Slab Decomposition



     bravais-lattice index     =            2
     lattice parameter (alat)  =       7.1000  a.u.
     unit-cell volume          =      89.4777 (a.u.)^3
     number of atoms/cell      =            2
     number of atomic types    =            2
     number of electrons       =         4.00
     number of Kohn-Sham states=            6
     kinetic-energy cutoff     =     450.0000  Ry
     charge density cutoff     =    1800.0000  Ry
     Exchange-correlation= PBE
                           (   1   4   3   4   0   0   0)

     celldm(1)=   7.100000  celldm(2)=   0.000000  celldm(3)=   0.000000
     celldm(4)=   0.000000  celldm(5)=   0.000000  celldm(6)=   0.000000

     crystal axes: (cart. coord. in units of alat)
               a(1) = (  -0.500000   0.000000   0.500000 )  
               a(2) = (   0.000000   0.500000   0.500000 )  
               a(3) = (  -0.500000   0.500000   0.000000 )  

     reciprocal axes: (cart. coord. in units 2 pi/alat)
               b(1) = ( -1.000000 -1.000000  1.000000 )  
               b(2) = (  1.000000  1.000000  1.000000 )  
               b(3) = ( -1.000000  1.000000 -1.000000 )  


     PseudoPot. # 1 for Li read from file:
     ../../Li_ONCV_PBE_sr.upf
     MD5 check sum: 014bfd9b71e8402e60e69f4a345650ec
     Pseudo is Norm-conserving, Zval =  3.0
     Generated using ONCVPSP code by D. R. Hamann
     Using radial grid of 1944 points,  4 beta functions with: 
                l(1) =   0
                l(2) =   0
                l(3) =   1
                l(4) =   1

     PseudoPot. # 2 for H  read from file:
     ../../H_ONCV_PBE_sr.upf
     MD5 check sum: 8975ef619c0c80d0ef0fa21f3286b90d
     Pseudo is Norm-conserving, Zval =  1.0
     Generated using ONCVPSP code by D. R. Hamann
     Using radial grid of 1166 points,  2 beta functions with: 
                l(1) =   0
                l(2) =   0

     atomic species   valence    mass     pseudopotential
        Li             3.00     9.01000     Li( 1.00)
        H              1.00     1.01000     H ( 1.00)

     No symmetry found



   Cartesian axes

     site n.     atom                  positions (alat units)
         1           Li  tau(   1) = (   0.0000000   0.0000000   0.0000000  )
         2           H   tau(   2) = (   0.5000000   0.5000000   0.5000000  )

     number of k points=     2  Methfessel-Paxton smearing, width (Ry)=  0.0010
                       cart. coord. in units 2pi/alat
        k(    1) = (   0.0000000   0.0000000   0.0000000), wk =   1.0000000
        k(    2) = (  -0.5000000  -0.5000000   0.5000000), wk =   1.0000000

     Dense  grid:   115339 G-vectors     FFT dimensions: (  72,  72,  72)

     Estimated max dynamical RAM per process >       8.92 MB

     Estimated total dynamical RAM >      71.39 MB

     The potential is recalculated from file :
     out/LiH.save/charge-density

     Starting wfcs are    3 randomized atomic wfcs +    3 random wfcs

     Band Structure Calculation
     Davidson diagonalization with overlap

     ethr =  2.50E-12,  avg # of iterations = 22.0

     total cpu time spent up to now is        0.7 secs

     End of band structure calculation

          k = 0.0000 0.0000 0.0000 ( 14331 PWs)   bands (ev):

   -42.3657  -4.3937  20.5755  21.8023  21.8023  21.8023

          k =-0.5000-0.5000 0.5000 ( 14398 PWs)   bands (ev):

   -42.2707  -1.4429   7.2106  17.2414  20.1815  20.1815

     the Fermi energy is     5.8283 ev
     (compare with:     2.3324 eV, computed in scf)

     Writing all to output data dir out/LiH.save/

     init_run     :      0.41s CPU      0.42s WALL (       1 calls)
     electrons    :      0.20s CPU      0.20s WALL (       1 calls)

     Called by init_run:
     wfcinit      :      0.00s CPU      0.00s WALL (       1 calls)
     potinit      :      0.02s CPU      0.03s WALL (       1 calls)
     hinit0       :      0.36s CPU      0.37s WALL (       1 calls)

     Called by electrons:
     c_bands      :      0.20s CPU      0.20s WALL (       1 calls)
     v_of_rho     :      0.02s CPU      0.03s WALL (       1 calls)

     Called by c_bands:
     init_us_2    :      0.00s CPU      0.00s WALL (       2 calls)
     init_us_2:cp :      0.00s CPU      0.00s WALL (       2 calls)
     cegterg      :      0.19s CPU      0.19s WALL (       3 calls)

     Called by *egterg:
     cdiaghg      :      0.00s CPU      0.00s WALL (      46 calls)
     h_psi        :      0.18s CPU      0.19s WALL (      49 calls)
     g_psi        :      0.00s CPU      0.00s WALL (      44 calls)

     Called by h_psi:
     h_psi:calbec :      0.00s CPU      0.00s WALL (      49 calls)
     vloc_psi     :      0.18s CPU      0.18s WALL (      49 calls)
     add_vuspsi   :      0.00s CPU      0.00s WALL (      49 calls)

     General routines
     calbec       :      0.00s CPU      0.00s WALL (      49 calls)
     fft          :      0.31s CPU      0.32s WALL (      10 calls)
     fftw         :      0.16s CPU      0.16s WALL (     388 calls)

     Parallel routines

     PWSCF        :      0.71s CPU      0.72s WALL


   This run was terminated on:  10:46: 4  25May2023            

=------------------------------------------------------------------------------=
   JOB DONE.
=------------------------------------------------------------------------------=
