<UPF version="2.0.1">
  <PP_INFO>

 This pseudopotential file has been produced using the code
 ONCVPSP  (Optimized Norm-Conservinng Vanderbilt PSeudopotential)
 scalar-relativistic version 3.2.2 08/07/2015 by D. R. Hamann
 The code is available through a link at URL www.mat-simresearch.com.
 Documentation with the package provides a full discription of the
 input data below.


 While it is not required under the terms of the GNU GPL, it is
 suggested that you cite D. R. Hamann, Phys. Rev. B 88, 085117 (2013)
 in any publication using these pseudopotentials.

    <PP_INPUTFILE>
# ATOM AND REFERENCE CONFIGURATION
# atsym  z   nc   nv     iexc    psfile
  C  6.00    1    2       4      upf
#
#   n    l    f        energy (Ha)
    1    0    2.00
    2    0    2.00
    2    1    2.00
#
# PSEUDOPOTENTIAL AND OPTIMIZATION
# lmax
    1
#
#   l,   rc,     ep,   ncon, nbas, qcut
    0    1.42   -0.51    5    8    6.98
    1    1.41   -0.19    5    8    8.59
#
# LOCAL POTENTIAL
# lloc, lpopt,  rc(5),   dvloc0
    4    5      0.82       0.00
#
# VANDERBILT-KLEINMAN-BYLANDER PROJECTORs
# l, nproj, debl
    0    2    1.0962
    1    2    1.2717
#
# MODEL CORE CHARGE
# icmod, fcfact
    0    0.00
#
# LOG DERIVATIVE ANALYSIS
# epsh1, epsh2, depsh
   -5.00    3.00    0.02
#
# OUTPUT GRID
# rlmax, drl
    6.00    0.01
#
# TEST CONFIGURATIONS
# ncnf
    0
# nvcnf
#   n    l    f
    </PP_INPUTFILE>
  </PP_INFO>
  <!--                               -->
  <!-- END OF HUMAN READABLE SECTION -->
  <!--                               -->
    <PP_HEADER
       generated="Generated using ONCVPSP code by D. R. Hamann"
       author="anonymous"
       date="200912"
       comment="Modified by Emil Briggs to output UPF format on log grid for RMG."
       element="C "
       pseudo_type="NC"
       relativistic="scalar"
       is_ultrasoft="F"
       is_paw="F"
       is_coulomb="F"
       has_so="F"
       has_wfc="F"
       has_gipaw="F"
       core_correction="F"
       functional="PBE"
       z_valence="    4.00"
       total_psenergy="  -1.07242004353E+01"
       rho_cutoff="   1.24700000000E+01"
       l_max="1"
       l_local="-1"
       mesh_size="  1106"
       number_of_wfc="2"
       number_of_proj="4"/>
 <PP_MESH>
   <PP_R type="real"  size="1106" columns="4">
  0.833333333333E-04  0.843333333333E-04  0.853453333333E-04  0.863694773333E-04
  0.874059110613E-04  0.884547819941E-04  0.895162393780E-04  0.905904342505E-04
  0.916775194615E-04  0.927776496951E-04  0.938909814914E-04  0.950176732693E-04
  0.961578853485E-04  0.973117799727E-04  0.984795213324E-04  0.996612755884E-04
  0.100857210895E-03  0.102067497426E-03  0.103292307395E-03  0.104531815084E-03
  0.105786196865E-03  0.107055631227E-03  0.108340298802E-03  0.109640382388E-03
  0.110956066976E-03  0.112287539780E-03  0.113634990258E-03  0.114998610141E-03
  0.116378593462E-03  0.117775136584E-03  0.119188438223E-03  0.120618699482E-03
  0.122066123875E-03  0.123530917362E-03  0.125013288370E-03  0.126513447831E-03
  0.128031609205E-03  0.129567988515E-03  0.131122804377E-03  0.132696278030E-03
  0.134288633366E-03  0.135900096966E-03  0.137530898130E-03  0.139181268908E-03
  0.140851444135E-03  0.142541661464E-03  0.144252161402E-03  0.145983187339E-03
  0.147734985587E-03  0.149507805414E-03  0.151301899079E-03  0.153117521868E-03
  0.154954932130E-03  0.156814391316E-03  0.158696164011E-03  0.160600517979E-03
  0.162527724195E-03  0.164478056886E-03  0.166451793568E-03  0.168449215091E-03
  0.170470605672E-03  0.172516252940E-03  0.174586447975E-03  0.176681485351E-03
  0.178801663175E-03  0.180947283133E-03  0.183118650531E-03  0.185316074337E-03
  0.187539867229E-03  0.189790345636E-03  0.192067829784E-03  0.194372643741E-03
  0.196705115466E-03  0.199065576852E-03  0.201454363774E-03  0.203871816139E-03
  0.206318277933E-03  0.208794097268E-03  0.211299626435E-03  0.213835221953E-03
  0.216401244616E-03  0.218998059551E-03  0.221626036266E-03  0.224285548701E-03
  0.226976975286E-03  0.229700698989E-03  0.232457107377E-03  0.235246592665E-03
  0.238069551777E-03  0.240926386399E-03  0.243817503036E-03  0.246743313072E-03
  0.249704232829E-03  0.252700683623E-03  0.255733091826E-03  0.258801888928E-03
  0.261907511595E-03  0.265050401734E-03  0.268231006555E-03  0.271449778634E-03
  0.274707175978E-03  0.278003662089E-03  0.281339706034E-03  0.284715782507E-03
  0.288132371897E-03  0.291589960360E-03  0.295089039884E-03  0.298630108362E-03
  0.302213669663E-03  0.305840233699E-03  0.309510316503E-03  0.313224440301E-03
  0.316983133585E-03  0.320786931188E-03  0.324636374362E-03  0.328532010854E-03
  0.332474394985E-03  0.336464087725E-03  0.340501656777E-03  0.344587676659E-03
  0.348722728778E-03  0.352907401524E-03  0.357142290342E-03  0.361427997826E-03
  0.365765133800E-03  0.370154315406E-03  0.374596167191E-03  0.379091321197E-03
  0.383640417051E-03  0.388244102056E-03  0.392903031281E-03  0.397617867656E-03
  0.402389282068E-03  0.407217953453E-03  0.412104568894E-03  0.417049823721E-03
  0.422054421605E-03  0.427119074665E-03  0.432244503561E-03  0.437431437603E-03
  0.442680614855E-03  0.447992782233E-03  0.453368695620E-03  0.458809119967E-03
  0.464314829407E-03  0.469886607360E-03  0.475525246648E-03  0.481231549608E-03
  0.487006328203E-03  0.492850404141E-03  0.498764608991E-03  0.504749784299E-03
  0.510806781711E-03  0.516936463091E-03  0.523139700648E-03  0.529417377056E-03
  0.535770385581E-03  0.542199630208E-03  0.548706025770E-03  0.555290498079E-03
  0.561953984056E-03  0.568697431865E-03  0.575521801047E-03  0.582428062660E-03
  0.589417199412E-03  0.596490205805E-03  0.603648088274E-03  0.610891865334E-03
  0.618222567718E-03  0.625641238530E-03  0.633148933393E-03  0.640746720593E-03
  0.648435681240E-03  0.656216909415E-03  0.664091512328E-03  0.672060610476E-03
  0.680125337802E-03  0.688286841856E-03  0.696546283958E-03  0.704904839365E-03
  0.713363697438E-03  0.721924061807E-03  0.730587150549E-03  0.739354196355E-03
  0.748226446712E-03  0.757205164072E-03  0.766291626041E-03  0.775487125553E-03
  0.784792971060E-03  0.794210486713E-03  0.803741012553E-03  0.813385904704E-03
  0.823146535560E-03  0.833024293987E-03  0.843020585515E-03  0.853136832541E-03
  0.863374474532E-03  0.873734968226E-03  0.884219787845E-03  0.894830425299E-03
  0.905568390403E-03  0.916435211087E-03  0.927432433620E-03  0.938561622824E-03
  0.949824362298E-03  0.961222254645E-03  0.972756921701E-03  0.984430004761E-03
  0.996243164819E-03  0.100819808280E-02  0.102029645979E-02  0.103254001731E-02
  0.104493049752E-02  0.105746966349E-02  0.107015929945E-02  0.108300121104E-02
  0.109599722557E-02  0.110914919228E-02  0.112245898259E-02  0.113592849038E-02
  0.114955963226E-02  0.116335434785E-02  0.117731460002E-02  0.119144237522E-02
  0.120573968373E-02  0.122020855993E-02  0.123485106265E-02  0.124966927540E-02
  0.126466530671E-02  0.127984129039E-02  0.129519938587E-02  0.131074177850E-02
  0.132647067985E-02  0.134238832800E-02  0.135849698794E-02  0.137479895179E-02
  0.139129653922E-02  0.140799209769E-02  0.142488800286E-02  0.144198665889E-02
  0.145929049880E-02  0.147680198479E-02  0.149452360860E-02  0.151245789191E-02
  0.153060738661E-02  0.154897467525E-02  0.156756237135E-02  0.158637311981E-02
  0.160540959725E-02  0.162467451241E-02  0.164417060656E-02  0.166390065384E-02
  0.168386746169E-02  0.170407387123E-02  0.172452275768E-02  0.174521703077E-02
  0.176615963514E-02  0.178735355076E-02  0.180880179337E-02  0.183050741489E-02
  0.185247350387E-02  0.187470318592E-02  0.189719962415E-02  0.191996601964E-02
  0.194300561188E-02  0.196632167922E-02  0.198991753937E-02  0.201379654984E-02
  0.203796210844E-02  0.206241765374E-02  0.208716666559E-02  0.211221266557E-02
  0.213755921756E-02  0.216320992817E-02  0.218916844731E-02  0.221543846868E-02
  0.224202373030E-02  0.226892801506E-02  0.229615515124E-02  0.232370901306E-02
  0.235159352122E-02  0.237981264347E-02  0.240837039519E-02  0.243727083993E-02
  0.246651809001E-02  0.249611630709E-02  0.252606970278E-02  0.255638253921E-02
  0.258705912968E-02  0.261810383924E-02  0.264952108531E-02  0.268131533833E-02
  0.271349112239E-02  0.274605301586E-02  0.277900565205E-02  0.281235371988E-02
  0.284610196452E-02  0.288025518809E-02  0.291481825035E-02  0.294979606935E-02
  0.298519362218E-02  0.302101594565E-02  0.305726813700E-02  0.309395535464E-02
  0.313108281890E-02  0.316865581272E-02  0.320667968248E-02  0.324515983867E-02
  0.328410175673E-02  0.332351097781E-02  0.336339310955E-02  0.340375382686E-02
  0.344459887278E-02  0.348593405926E-02  0.352776526797E-02  0.357009845118E-02
  0.361293963260E-02  0.365629490819E-02  0.370017044709E-02  0.374457249245E-02
  0.378950736236E-02  0.383498145071E-02  0.388100122812E-02  0.392757324285E-02
  0.397470412177E-02  0.402240057123E-02  0.407066937808E-02  0.411951741062E-02
  0.416895161955E-02  0.421897903898E-02  0.426960678745E-02  0.432084206890E-02
  0.437269217373E-02  0.442516447981E-02  0.447826645357E-02  0.453200565101E-02
  0.458638971883E-02  0.464142639545E-02  0.469712351220E-02  0.475348899434E-02
  0.481053086228E-02  0.486825723262E-02  0.492667631941E-02  0.498579643525E-02
  0.504562599247E-02  0.510617350438E-02  0.516744758643E-02  0.522945695747E-02
  0.529221044096E-02  0.535571696625E-02  0.541998556985E-02  0.548502539668E-02
  0.555084570144E-02  0.561745584986E-02  0.568486532006E-02  0.575308370390E-02
  0.582212070835E-02  0.589198615685E-02  0.596268999073E-02  0.603424227062E-02
  0.610665317787E-02  0.617993301600E-02  0.625409221219E-02  0.632914131874E-02
  0.640509101456E-02  0.648195210674E-02  0.655973553202E-02  0.663845235840E-02
  0.671811378670E-02  0.679873115214E-02  0.688031592597E-02  0.696287971708E-02
  0.704643427369E-02  0.713099148497E-02  0.721656338279E-02  0.730316214338E-02
  0.739080008910E-02  0.747948969017E-02  0.756924356646E-02  0.766007448925E-02
  0.775199538312E-02  0.784501932772E-02  0.793915955965E-02  0.803442947437E-02
  0.813084262806E-02  0.822841273960E-02  0.832715369247E-02  0.842707953678E-02
  0.852820449123E-02  0.863054294512E-02  0.873410946046E-02  0.883891877399E-02
  0.894498579928E-02  0.905232562887E-02  0.916095353641E-02  0.927088497885E-02
  0.938213559860E-02  0.949472122578E-02  0.960865788049E-02  0.972396177505E-02
  0.984064931635E-02  0.995873710815E-02  0.100782419534E-01  0.101991808569E-01
  0.103215710272E-01  0.104454298795E-01  0.105707750381E-01  0.106976243385E-01
  0.108259958306E-01  0.109559077805E-01  0.110873786739E-01  0.112204272180E-01
  0.113550723446E-01  0.114913332127E-01  0.116292292113E-01  0.117687799618E-01
  0.119100053214E-01  0.120529253852E-01  0.121975604899E-01  0.123439312157E-01
  0.124920583903E-01  0.126419630910E-01  0.127936666481E-01  0.129471906479E-01
  0.131025569356E-01  0.132597876189E-01  0.134189050703E-01  0.135799319311E-01
  0.137428911143E-01  0.139078058077E-01  0.140746994774E-01  0.142435958711E-01
  0.144145190216E-01  0.145874932498E-01  0.147625431688E-01  0.149396936868E-01
  0.151189700111E-01  0.153003976512E-01  0.154840024230E-01  0.156698104521E-01
  0.158578481775E-01  0.160481423557E-01  0.162407200639E-01  0.164356087047E-01
  0.166328360092E-01  0.168324300413E-01  0.170344192018E-01  0.172388322322E-01
  0.174456982190E-01  0.176550465976E-01  0.178669071568E-01  0.180813100427E-01
  0.182982857632E-01  0.185178651923E-01  0.187400795746E-01  0.189649605295E-01
  0.191925400559E-01  0.194228505366E-01  0.196559247430E-01  0.198917958399E-01
  0.201304973900E-01  0.203720633587E-01  0.206165281190E-01  0.208639264564E-01
  0.211142935739E-01  0.213676650968E-01  0.216240770779E-01  0.218835660029E-01
  0.221461687949E-01  0.224119228204E-01  0.226808658943E-01  0.229530362850E-01
  0.232284727204E-01  0.235072143931E-01  0.237893009658E-01  0.240747725774E-01
  0.243636698483E-01  0.246560338865E-01  0.249519062931E-01  0.252513291686E-01
  0.255543451187E-01  0.258609972601E-01  0.261713292272E-01  0.264853851779E-01
  0.268032098001E-01  0.271248483177E-01  0.274503464975E-01  0.277797506555E-01
  0.281131076633E-01  0.284504649553E-01  0.287918705347E-01  0.291373729812E-01
  0.294870214569E-01  0.298408657144E-01  0.301989561030E-01  0.305613435762E-01
  0.309280796991E-01  0.312992166555E-01  0.316748072554E-01  0.320549049425E-01
  0.324395638018E-01  0.328288385674E-01  0.332227846302E-01  0.336214580458E-01
  0.340249155423E-01  0.344332145288E-01  0.348464131032E-01  0.352645700604E-01
  0.356877449011E-01  0.361159978399E-01  0.365493898140E-01  0.369879824918E-01
  0.374318382817E-01  0.378810203411E-01  0.383355925852E-01  0.387956196962E-01
  0.392611671325E-01  0.397323011381E-01  0.402090887518E-01  0.406915978168E-01
  0.411798969906E-01  0.416740557545E-01  0.421741444236E-01  0.426802341566E-01
  0.431923969665E-01  0.437107057301E-01  0.442352341989E-01  0.447660570093E-01
  0.453032496934E-01  0.458468886897E-01  0.463970513540E-01  0.469538159702E-01
  0.475172617619E-01  0.480874689030E-01  0.486645185298E-01  0.492484927522E-01
  0.498394746652E-01  0.504375483612E-01  0.510427989415E-01  0.516553125288E-01
  0.522751762792E-01  0.529024783945E-01  0.535373081353E-01  0.541797558329E-01
  0.548299129029E-01  0.554878718577E-01  0.561537263200E-01  0.568275710359E-01
  0.575095018883E-01  0.581996159109E-01  0.588980113019E-01  0.596047874375E-01
  0.603200448867E-01  0.610438854254E-01  0.617764120505E-01  0.625177289951E-01
  0.632679417430E-01  0.640271570440E-01  0.647954829285E-01  0.655730287236E-01
  0.663599050683E-01  0.671562239291E-01  0.679620986163E-01  0.687776437997E-01
  0.696029755253E-01  0.704382112316E-01  0.712834697664E-01  0.721388714036E-01
  0.730045378604E-01  0.738805923147E-01  0.747671594225E-01  0.756643653356E-01
  0.765723377196E-01  0.774912057722E-01  0.784211002415E-01  0.793621534444E-01
  0.803144992857E-01  0.812782732772E-01  0.822536125565E-01  0.832406559072E-01
  0.842395437780E-01  0.852504183034E-01  0.862734233230E-01  0.873087044029E-01
  0.883564088557E-01  0.894166857620E-01  0.904896859911E-01  0.915755622230E-01
  0.926744689697E-01  0.937865625973E-01  0.949120013485E-01  0.960509453647E-01
  0.972035567091E-01  0.983699993896E-01  0.995504393823E-01  0.100745044655E+00
  0.101953985191E+00  0.103177433013E+00  0.104415562209E+00  0.105668548956E+00
  0.106936571543E+00  0.108219810402E+00  0.109518448126E+00  0.110832669504E+00
  0.112162661538E+00  0.113508613476E+00  0.114870716838E+00  0.116249165440E+00
  0.117644155426E+00  0.119055885291E+00  0.120484555914E+00  0.121930370585E+00
  0.123393535032E+00  0.124874257453E+00  0.126372748542E+00  0.127889221524E+00
  0.129423892183E+00  0.130976978889E+00  0.132548702636E+00  0.134139287067E+00
  0.135748958512E+00  0.137377946014E+00  0.139026481366E+00  0.140694799143E+00
  0.142383136732E+00  0.144091734373E+00  0.145820835186E+00  0.147570685208E+00
  0.149341533430E+00  0.151133631832E+00  0.152947235414E+00  0.154782602239E+00
  0.156639993465E+00  0.158519673387E+00  0.160421909468E+00  0.162346972381E+00
  0.164295136050E+00  0.166266677682E+00  0.168261877815E+00  0.170281020348E+00
  0.172324392593E+00  0.174392285304E+00  0.176484992727E+00  0.178602812640E+00
  0.180746046392E+00  0.182914998948E+00  0.185109978936E+00  0.187331298683E+00
  0.189579274267E+00  0.191854225558E+00  0.194156476265E+00  0.196486353980E+00
  0.198844190228E+00  0.201230320511E+00  0.203645084357E+00  0.206088825369E+00
  0.208561891274E+00  0.211064633969E+00  0.213597409577E+00  0.216160578492E+00
  0.218754505433E+00  0.221379559499E+00  0.224036114213E+00  0.226724547583E+00
  0.229445242154E+00  0.232198585060E+00  0.234984968081E+00  0.237804787698E+00
  0.240658445150E+00  0.243546346492E+00  0.246468902650E+00  0.249426529482E+00
  0.252419647835E+00  0.255448683609E+00  0.258514067813E+00  0.261616236626E+00
  0.264755631466E+00  0.267932699044E+00  0.271147891432E+00  0.274401666129E+00
  0.277694486123E+00  0.281026819956E+00  0.284399141796E+00  0.287811931497E+00
  0.291265674675E+00  0.294760862771E+00  0.298297993125E+00  0.301877569042E+00
  0.305500099871E+00  0.309166101069E+00  0.312876094282E+00  0.316630607413E+00
  0.320430174702E+00  0.324275336799E+00  0.328166640840E+00  0.332104640530E+00
  0.336089896217E+00  0.340122974971E+00  0.344204450671E+00  0.348334904079E+00
  0.352514922928E+00  0.356745102003E+00  0.361026043227E+00  0.365358355746E+00
  0.369742656015E+00  0.374179567887E+00  0.378669722702E+00  0.383213759374E+00
  0.387812324487E+00  0.392466072380E+00  0.397175665249E+00  0.401941773232E+00
  0.406765074511E+00  0.411646255405E+00  0.416586010470E+00  0.421585042595E+00
  0.426644063106E+00  0.431763791864E+00  0.436944957366E+00  0.442188296855E+00
  0.447494556417E+00  0.452864491094E+00  0.458298864987E+00  0.463798451367E+00
  0.469364032783E+00  0.474996401177E+00  0.480696357991E+00  0.486464714287E+00
  0.492302290858E+00  0.498209918348E+00  0.504188437368E+00  0.510238698617E+00
  0.516361563000E+00  0.522557901756E+00  0.528828596577E+00  0.535174539736E+00
  0.541596634213E+00  0.548095793824E+00  0.554672943350E+00  0.561329018670E+00
  0.568064966894E+00  0.574881746497E+00  0.581780327454E+00  0.588761691384E+00
  0.595826831681E+00  0.602976753661E+00  0.610212474705E+00  0.617535024401E+00
  0.624945444694E+00  0.632444790030E+00  0.640034127511E+00  0.647714537041E+00
  0.655487111485E+00  0.663352956823E+00  0.671313192305E+00  0.679368950613E+00
  0.687521378020E+00  0.695771634556E+00  0.704120894171E+00  0.712570344901E+00
  0.721121189040E+00  0.729774643308E+00  0.738531939028E+00  0.747394322296E+00
  0.756363054164E+00  0.765439410814E+00  0.774624683744E+00  0.783920179948E+00
  0.793327222108E+00  0.802847148773E+00  0.812481314558E+00  0.822231090333E+00
  0.832097863417E+00  0.842083037778E+00  0.852188034231E+00  0.862414290642E+00
  0.872763262130E+00  0.883236421275E+00  0.893835258331E+00  0.904561281431E+00
  0.915416016808E+00  0.926401009010E+00  0.937517821118E+00  0.948768034971E+00
  0.960153251391E+00  0.971675090407E+00  0.983335191492E+00  0.995135213790E+00
  0.100707683636E+01  0.101916175839E+01  0.103139169949E+01  0.104376839989E+01
  0.105629362069E+01  0.106896914413E+01  0.108179677386E+01  0.109477833515E+01
  0.110791567517E+01  0.112121066327E+01  0.113466519123E+01  0.114828117353E+01
  0.116206054761E+01  0.117600527418E+01  0.119011733747E+01  0.120439874552E+01
  0.121885153047E+01  0.123347774883E+01  0.124827948182E+01  0.126325883560E+01
  0.127841794163E+01  0.129375895693E+01  0.130928406441E+01  0.132499547318E+01
  0.134089541886E+01  0.135698616389E+01  0.137326999785E+01  0.138974923783E+01
  0.140642622868E+01  0.142330334343E+01  0.144038298355E+01  0.145766757935E+01
  0.147515959030E+01  0.149286150539E+01  0.151077584345E+01  0.152890515357E+01
  0.154725201542E+01  0.156581903960E+01  0.158460886808E+01  0.160362417449E+01
  0.162286766459E+01  0.164234207656E+01  0.166205018148E+01  0.168199478366E+01
  0.170217872106E+01  0.172260486571E+01  0.174327612410E+01  0.176419543759E+01
  0.178536578284E+01  0.180679017224E+01  0.182847165430E+01  0.185041331416E+01
  0.187261827393E+01  0.189508969321E+01  0.191783076953E+01  0.194084473877E+01
  0.196413487563E+01  0.198770449414E+01  0.201155694807E+01  0.203569563145E+01
  0.206012397902E+01  0.208484546677E+01  0.210986361237E+01  0.213518197572E+01
  0.216080415943E+01  0.218673380934E+01  0.221297461505E+01  0.223953031044E+01
  0.226640467416E+01  0.229360153025E+01  0.232112474861E+01  0.234897824560E+01
  0.237716598454E+01  0.240569197636E+01  0.243456028007E+01  0.246377500344E+01
  0.249334030348E+01  0.252326038712E+01  0.255353951176E+01  0.258418198591E+01
  0.261519216974E+01  0.264657447577E+01  0.267833336948E+01  0.271047336992E+01
  0.274299905035E+01  0.277591503896E+01  0.280922601943E+01  0.284293673166E+01
  0.287705197244E+01  0.291157659611E+01  0.294651551526E+01  0.298187370145E+01
  0.301765618586E+01  0.305386806009E+01  0.309051447681E+01  0.312760065054E+01
  0.316513185834E+01  0.320311344064E+01  0.324155080193E+01  0.328044941155E+01
  0.331981480449E+01  0.335965258215E+01  0.339996841313E+01  0.344076803409E+01
  0.348205725050E+01  0.352384193750E+01  0.356612804075E+01  0.360892157724E+01
  0.365222863617E+01  0.369605537980E+01  0.374040804436E+01  0.378529294089E+01
  0.383071645619E+01  0.387668505366E+01  0.392320527430E+01  0.397028373759E+01
  0.401792714245E+01  0.406614226816E+01  0.411493597537E+01  0.416431520708E+01
  0.421428698956E+01  0.426485843344E+01  0.431603673464E+01  0.436782917545E+01
  0.442024312556E+01  0.447328604307E+01  0.452696547558E+01  0.458128906129E+01
  0.463626453003E+01  0.469189970439E+01  0.474820250084E+01  0.480518093085E+01
  0.486284310202E+01  0.492119721924E+01  0.498025158587E+01  0.504001460490E+01
  0.510049478016E+01  0.516170071753E+01  0.522364112614E+01  0.528632481965E+01
  0.534976071749E+01  0.541395784609E+01  0.547892534025E+01  0.554467244433E+01
  0.561120851366E+01  0.567854301583E+01  0.574668553202E+01  0.581564575840E+01
  0.588543350750E+01  0.595605870959E+01  0.602753141411E+01  0.609986179108E+01
  0.617306013257E+01  0.624713685416E+01  0.632210249641E+01  0.639796772637E+01
  0.647474333908E+01  0.655244025915E+01  0.663106954226E+01  0.671064237677E+01
  0.679117008529E+01  0.687266412631E+01  0.695513609583E+01  0.703859772898E+01
  0.712306090173E+01  0.720853763255E+01  0.729504008414E+01  0.738258056515E+01
  0.747117153193E+01  0.756082559031E+01  0.765155549740E+01  0.774337416337E+01
  0.783629465333E+01  0.793033018917E+01  0.802549415144E+01  0.812180008125E+01
  0.821926168223E+01  0.831789282242E+01  0.841770753628E+01  0.851872002672E+01
  0.862094466704E+01  0.872439600304E+01  0.882908875508E+01  0.893503782014E+01
  0.904225827398E+01  0.915076537327E+01  0.926057455775E+01  0.937170145244E+01
  0.948416186987E+01  0.959797181231E+01  0.971314747406E+01  0.982970524375E+01
  0.994766170667E+01  0.100670336472E+02  0.101878380509E+02  0.103100921075E+02
  0.104338132128E+02  0.105590189714E+02  0.106857271990E+02  0.108139559254E+02
  0.109437233965E+02  0.110750480773E+02  0.112079486542E+02  0.113424440381E+02
  0.114785533665E+02  0.116162960069E+02  0.117556915590E+02  0.118967598577E+02
  0.120395209760E+02  0.121839952277E+02  0.123302031704E+02  0.124781656085E+02
  0.126279035958E+02  0.127794384389E+02  0.129327917002E+02  0.130879852006E+02
  0.132450410230E+02  0.134039815153E+02  0.135648292935E+02  0.137276072450E+02
  0.138923385319E+02  0.140590465943E+02  0.142277551535E+02  0.143984882153E+02
  0.145712700739E+02  0.147461253148E+02  0.149230788185E+02  0.151021557644E+02
  0.152833816335E+02  0.154667822131E+02  0.156523835997E+02  0.158402122029E+02
  0.160302947493E+02  0.162226582863E+02  0.164173301858E+02  0.166143381480E+02
  0.168137102058E+02  0.170154747282E+02  0.172196604250E+02  0.174262963501E+02
  0.176354119063E+02  0.178470368491E+02  0.180612012913E+02  0.182779357068E+02
  0.184972709353E+02  0.187192381865E+02  0.189438690448E+02  0.191711954733E+02
  0.194012498190E+02  0.196340648168E+02  0.198696735946E+02  0.201081096778E+02
  0.203494069939E+02  0.205935998778E+02  0.208407230764E+02  0.210908117533E+02
  0.213439014943E+02  0.216000283122E+02  0.218592286520E+02  0.221215393958E+02
  0.223869978686E+02  0.226556418430E+02  0.229275095451E+02  0.232026396596E+02
  0.234810713356E+02  0.237628441916E+02  0.240479983219E+02  0.243365743017E+02
  0.246286131934E+02  0.249241565517E+02  0.252232464303E+02  0.255259253875E+02
  0.258322364921E+02  0.261422233300E+02  0.264559300100E+02  0.267734011701E+02
  0.270946819841E+02  0.274198181680E+02  0.277488559860E+02  0.280818422578E+02
  0.284188243649E+02  0.287598502573E+02  0.291049684604E+02  0.294542280819E+02
  0.298076788189E+02  0.301653709647E+02  0.305273554163E+02  0.308936836813E+02
  0.312644078854E+02  0.316395807801E+02  0.320192557494E+02  0.324034868184E+02
  0.327923286602E+02  0.331858366042E+02  0.335840666434E+02  0.339870754431E+02
  0.343949203485E+02  0.348076593926E+02  0.352253513053E+02  0.356480555210E+02
  0.360758321873E+02  0.365087421735E+02  0.369468470796E+02  0.373902092445E+02
  0.378388917555E+02  0.382929584565E+02  0.387524739580E+02  0.392175036455E+02
  0.396881136893E+02  0.401643710535E+02  0.406463435062E+02  0.411340996283E+02
  0.416277088238E+02  0.421272413297E+02  0.426327682256E+02  0.431443614443E+02
  0.436620937817E+02  0.441860389071E+02
   </PP_R>
   <PP_RAB type="real"  size="1106" columns="4">
  0.994047572106E-06  0.100597614297E-05  0.101804785669E-05  0.103026443097E-05
  0.104262760414E-05  0.105513913539E-05  0.106780080501E-05  0.108061441467E-05
  0.109358178765E-05  0.110670476910E-05  0.111998522633E-05  0.113342504905E-05
  0.114702614964E-05  0.116079046343E-05  0.117471994899E-05  0.118881658838E-05
  0.120308238744E-05  0.121751937609E-05  0.123212960860E-05  0.124691516391E-05
  0.126187814587E-05  0.127702068362E-05  0.129234493183E-05  0.130785307101E-05
  0.132354730786E-05  0.133942987556E-05  0.135550303406E-05  0.137176907047E-05
  0.138823029932E-05  0.140488906291E-05  0.142174773166E-05  0.143880870444E-05
  0.145607440890E-05  0.147354730180E-05  0.149122986942E-05  0.150912462786E-05
  0.152723412339E-05  0.154556093287E-05  0.156410766407E-05  0.158287695604E-05
  0.160187147951E-05  0.162109393726E-05  0.164054706451E-05  0.166023362928E-05
  0.168015643283E-05  0.170031831003E-05  0.172072212975E-05  0.174137079531E-05
  0.176226724485E-05  0.178341445179E-05  0.180481542521E-05  0.182647321031E-05
  0.184839088884E-05  0.187057157950E-05  0.189301843846E-05  0.191573465972E-05
  0.193872347563E-05  0.196198815734E-05  0.198553201523E-05  0.200935839941E-05
  0.203347070021E-05  0.205787234861E-05  0.208256681679E-05  0.210755761859E-05
  0.213284831002E-05  0.215844248974E-05  0.218434379961E-05  0.221055592521E-05
  0.223708259631E-05  0.226392758747E-05  0.229109471852E-05  0.231858785514E-05
  0.234641090940E-05  0.237456784031E-05  0.240306265440E-05  0.243189940625E-05
  0.246108219912E-05  0.249061518551E-05  0.252050256774E-05  0.255074859855E-05
  0.258135758174E-05  0.261233387272E-05  0.264368187919E-05  0.267540606174E-05
  0.270751093448E-05  0.274000106569E-05  0.277288107848E-05  0.280615565142E-05
  0.283982951924E-05  0.287390747347E-05  0.290839436315E-05  0.294329509551E-05
  0.297861463666E-05  0.301435801230E-05  0.305053030844E-05  0.308713667215E-05
  0.312418231221E-05  0.316167249996E-05  0.319961256996E-05  0.323800792080E-05
  0.327686401585E-05  0.331618638404E-05  0.335598062065E-05  0.339625238809E-05
  0.343700741675E-05  0.347825150575E-05  0.351999052382E-05  0.356223041011E-05
  0.360497717503E-05  0.364823690113E-05  0.369201574394E-05  0.373631993287E-05
  0.378115577206E-05  0.382652964133E-05  0.387244799702E-05  0.391891737299E-05
  0.396594438146E-05  0.401353571404E-05  0.406169814261E-05  0.411043852032E-05
  0.415976378257E-05  0.420968094796E-05  0.426019711933E-05  0.431131948476E-05
  0.436305531858E-05  0.441541198240E-05  0.446839692619E-05  0.452201768931E-05
  0.457628190158E-05  0.463119728440E-05  0.468677165181E-05  0.474301291163E-05
  0.479992906657E-05  0.485752821537E-05  0.491581855395E-05  0.497480837660E-05
  0.503450607712E-05  0.509492015005E-05  0.515605919185E-05  0.521793190215E-05
  0.528054708498E-05  0.534391365000E-05  0.540804061380E-05  0.547293710116E-05
  0.553861234637E-05  0.560507569453E-05  0.567233660287E-05  0.574040464210E-05
  0.580928949781E-05  0.587900097178E-05  0.594954898344E-05  0.602094357124E-05
  0.609319489410E-05  0.616631323283E-05  0.624030899162E-05  0.631519269952E-05
  0.639097501191E-05  0.646766671206E-05  0.654527871260E-05  0.662382205715E-05
  0.670330792184E-05  0.678374761690E-05  0.686515258830E-05  0.694753441936E-05
  0.703090483239E-05  0.711527569038E-05  0.720065899867E-05  0.728706690665E-05
  0.737451170953E-05  0.746300585005E-05  0.755256192025E-05  0.764319266329E-05
  0.773491097525E-05  0.782772990695E-05  0.792166266584E-05  0.801672261783E-05
  0.811292328924E-05  0.821027836871E-05  0.830880170913E-05  0.840850732964E-05
  0.850940941760E-05  0.861152233061E-05  0.871486059858E-05  0.881943892576E-05
  0.892527219287E-05  0.903237545919E-05  0.914076396470E-05  0.925045313227E-05
  0.936145856986E-05  0.947379607270E-05  0.958748162557E-05  0.970253140508E-05
  0.981896178194E-05  0.993678932332E-05  0.100560307952E-04  0.101767031647E-04
  0.102988236027E-04  0.104224094860E-04  0.105474783998E-04  0.106740481406E-04
  0.108021367183E-04  0.109317623589E-04  0.110629435072E-04  0.111956988293E-04
  0.113300472152E-04  0.114660077818E-04  0.116035998752E-04  0.117428430737E-04
  0.118837571906E-04  0.120263622769E-04  0.121706786242E-04  0.123167267677E-04
  0.124645274889E-04  0.126141018188E-04  0.127654710406E-04  0.129186566931E-04
  0.130736805734E-04  0.132305647403E-04  0.133893315172E-04  0.135500034954E-04
  0.137126035373E-04  0.138771547798E-04  0.140436806371E-04  0.142122048048E-04
  0.143827512624E-04  0.145553442776E-04  0.147300084089E-04  0.149067685098E-04
  0.150856497319E-04  0.152666775287E-04  0.154498776590E-04  0.156352761910E-04
  0.158228995052E-04  0.160127742993E-04  0.162049275909E-04  0.163993867220E-04
  0.165961793627E-04  0.167953335150E-04  0.169968775172E-04  0.172008400474E-04
  0.174072501280E-04  0.176161371295E-04  0.178275307750E-04  0.180414611443E-04
  0.182579586781E-04  0.184770541822E-04  0.186987788324E-04  0.189231641784E-04
  0.191502421485E-04  0.193800450543E-04  0.196126055950E-04  0.198479568621E-04
  0.200861323445E-04  0.203271659326E-04  0.205710919238E-04  0.208179450269E-04