<UPF version="2.0.1">
  <PP_INFO>

 This pseudopotential file has been produced using the code
 ONCVPSP  (Optimized Norm-Conservinng Vanderbilt PSeudopotential)
 scalar-relativistic version 3.2.2 08/07/2015 by D. R. Hamann
 The code is available through a link at URL www.mat-simresearch.com.
 Documentation with the package provides a full discription of the
 input data below.


 While it is not required under the terms of the GNU GPL, it is
 suggested that you cite D. R. Hamann, Phys. Rev. B 88, 085117 (2013)
 in any publication using these pseudopotentials.

    <PP_INPUTFILE>
# ATOM AND REFERENCE CONFIGURATION
# atsym  z   nc   nv     iexc    psfile
  O  8.00    1    2       4      upf
#
#   n    l    f        energy (Ha)
    1    0    2.00
    2    0    2.00
    2    1    4.00
#
# PSEUDOPOTENTIAL AND OPTIMIZATION
# lmax
    1
#
#   l,   rc,     ep,   ncon, nbas, qcut
    0    1.60   -0.88    4    7    8.00
    1    1.60   -0.33    4    7    8.00
#
# LOCAL POTENTIAL
# lloc, lpopt,  rc(5),   dvloc0
    4    5      1.40       0.00
#
# VANDERBILT-KLEINMAN-BYLANDER PROJECTORs
# l, nproj, debl
    0    2    1.5000
    1    2    1.0000
#
# MODEL CORE CHARGE
# icmod, fcfact
    0    0.00
#
# LOG DERIVATIVE ANALYSIS
# epsh1, epsh2, depsh
   -2.00    2.00    0.02
#
# OUTPUT GRID
# rlmax, drl
    4.00    0.01
#
# TEST CONFIGURATIONS
# ncnf
    3
# nvcnf
#   n    l    f
    2
    2    0    2.00
    2    1    3.00
#
    2
    2    0    1.00
    2    1    4.00
#
    2
    2    0    1.00
    2    1    3.00
#
    </PP_INPUTFILE>
  </PP_INFO>
  <!--                               -->
  <!-- END OF HUMAN READABLE SECTION -->
  <!--                               -->
    <PP_HEADER
       generated="Generated using ONCVPSP code by D. R. Hamann"
       author="anonymous"
       date="200914"
       comment="Modified by Emil Briggs to output UPF format on log grid for RMG."
       element="O "
       pseudo_type="NC"
       relativistic="scalar"
       is_ultrasoft="F"
       is_paw="F"
       is_coulomb="F"
       has_so="F"
       has_wfc="F"
       has_gipaw="F"
       core_correction="F"
       functional="PBE"
       z_valence="    6.00"
       total_psenergy="  -3.13210777870E+01"
       rho_cutoff="   9.35500000000E+00"
       l_max="1"
       l_local="-1"
       mesh_size="  1130"
       number_of_wfc="2"
       number_of_proj="4"/>
 <PP_MESH>
   <PP_R type="real"  size="1130" columns="4">
  0.625000000000E-04  0.632500000000E-04  0.640090000000E-04  0.647771080000E-04
  0.655544332960E-04  0.663410864956E-04  0.671371795335E-04  0.679428256879E-04
  0.687581395962E-04  0.695832372713E-04  0.704182361186E-04  0.712632549520E-04
  0.721184140114E-04  0.729838349795E-04  0.738596409993E-04  0.747459566913E-04
  0.756429081716E-04  0.765506230696E-04  0.774692305465E-04  0.783988613130E-04
  0.793396476488E-04  0.802917234206E-04  0.812552241016E-04  0.822302867909E-04
  0.832170502323E-04  0.842156548351E-04  0.852262426932E-04  0.862489576055E-04
  0.872839450967E-04  0.883313524379E-04  0.893913286672E-04  0.904640246112E-04
  0.915495929065E-04  0.926481880214E-04  0.937599662776E-04  0.948850858730E-04
  0.960237069034E-04  0.971759913863E-04  0.983421032829E-04  0.995222085223E-04
  0.100716475025E-03  0.101925072725E-03  0.103148173598E-03  0.104385951681E-03
  0.105638583101E-03  0.106906246098E-03  0.108189121051E-03  0.109487390504E-03
  0.110801239190E-03  0.112130854060E-03  0.113476424309E-03  0.114838141401E-03
  0.116216199097E-03  0.117610793487E-03  0.119022123008E-03  0.120450388485E-03
  0.121895793146E-03  0.123358542664E-03  0.124838845176E-03  0.126336911318E-03
  0.127852954254E-03  0.129387189705E-03  0.130939835982E-03  0.132511114013E-03
  0.134101247382E-03  0.135710462350E-03  0.137338987898E-03  0.138987055753E-03
  0.140654900422E-03  0.142342759227E-03  0.144050872338E-03  0.145779482806E-03
  0.147528836600E-03  0.149299182639E-03  0.151090772830E-03  0.152903862104E-03
  0.154738708450E-03  0.156595572951E-03  0.158474719827E-03  0.160376416464E-03
  0.162300933462E-03  0.164248544664E-03  0.166219527200E-03  0.168214161526E-03
  0.170232731464E-03  0.172275524242E-03  0.174342830533E-03  0.176434944499E-03
  0.178552163833E-03  0.180694789799E-03  0.182863127277E-03  0.185057484804E-03
  0.187278174622E-03  0.189525512717E-03  0.191799818870E-03  0.194101416696E-03
  0.196430633696E-03  0.198787801301E-03  0.201173254916E-03  0.203587333975E-03
  0.206030381983E-03  0.208502746567E-03  0.211004779526E-03  0.213536836880E-03
  0.216099278923E-03  0.218692470270E-03  0.221316779913E-03  0.223972581272E-03
  0.226660252247E-03  0.229380175274E-03  0.232132737377E-03  0.234918330226E-03
  0.237737350189E-03  0.240590198391E-03  0.243477280772E-03  0.246399008141E-03
  0.249355796239E-03  0.252348065793E-03  0.255376242583E-03  0.258440757494E-03
  0.261542046584E-03  0.264680551143E-03  0.267856717757E-03  0.271070998370E-03
  0.274323850350E-03  0.277615736554E-03  0.280947125393E-03  0.284318490898E-03
  0.287730312788E-03  0.291183076542E-03  0.294677273460E-03  0.298213400742E-03
  0.301791961551E-03  0.305413465089E-03  0.309078426670E-03  0.312787367791E-03
  0.316540816204E-03  0.320339305998E-03  0.324183377670E-03  0.328073578202E-03
  0.332010461141E-03  0.335994586675E-03  0.340026521715E-03  0.344106839975E-03
  0.348236122055E-03  0.352414955520E-03  0.356643934986E-03  0.360923662206E-03
  0.365254746152E-03  0.369637803106E-03  0.374073456743E-03  0.378562338224E-03
  0.383105086283E-03  0.387702347318E-03  0.392354775486E-03  0.397063032792E-03
  0.401827789185E-03  0.406649722656E-03  0.411529519328E-03  0.416467873559E-03
  0.421465488042E-03  0.426523073899E-03  0.431641350785E-03  0.436821046995E-03
  0.442062899559E-03  0.447367654354E-03  0.452736066206E-03  0.458168899000E-03
  0.463666925788E-03  0.469230928898E-03  0.474861700044E-03  0.480560040445E-03
  0.486326760930E-03  0.492162682062E-03  0.498068634246E-03  0.504045457857E-03
  0.510094003352E-03  0.516215131392E-03  0.522409712968E-03  0.528678629524E-03
  0.535022773078E-03  0.541443046355E-03  0.547940362912E-03  0.554515647266E-03
  0.561169835034E-03  0.567903873054E-03  0.574718719531E-03  0.581615344165E-03
  0.588594728295E-03  0.595657865035E-03  0.602805759415E-03  0.610039428528E-03
  0.617359901670E-03  0.624768220490E-03  0.632265439136E-03  0.639852624406E-03
  0.647530855899E-03  0.655301226170E-03  0.663164840884E-03  0.671122818974E-03
  0.679176292802E-03  0.687326408316E-03  0.695574325215E-03  0.703921217118E-03
  0.712368271723E-03  0.720916690984E-03  0.729567691276E-03  0.738322503571E-03
  0.747182373614E-03  0.756148562097E-03  0.765222344842E-03  0.774405012981E-03
  0.783697873136E-03  0.793102247614E-03  0.802619474585E-03  0.812250908280E-03
  0.821997919180E-03  0.831861894210E-03  0.841844236940E-03  0.851946367784E-03
  0.862169724197E-03  0.872515760887E-03  0.882985950018E-03  0.893581781418E-03
  0.904304762795E-03  0.915156419949E-03  0.926138296988E-03  0.937251956552E-03
  0.948498980031E-03  0.959880967791E-03  0.971399539405E-03  0.983056333878E-03
  0.994853009884E-03  0.100679124600E-02  0.101887274095E-02  0.103109921385E-02
  0.104347240441E-02  0.105599407327E-02  0.106866600214E-02  0.108148999417E-02
  0.109446787410E-02  0.110760148859E-02  0.112089270645E-02  0.113434341893E-02
  0.114795553996E-02  0.116173100644E-02  0.117567177851E-02  0.118977983986E-02
  0.120405719793E-02  0.121850588431E-02  0.123312795492E-02  0.124792549038E-02
  0.126290059626E-02  0.127805540342E-02  0.129339206826E-02  0.130891277308E-02
  0.132461972636E-02  0.134051516307E-02  0.135660134503E-02  0.137288056117E-02
  0.138935512790E-02  0.140602738944E-02  0.142289971811E-02  0.143997451473E-02
  0.145725420891E-02  0.147474125941E-02  0.149243815453E-02  0.151034741238E-02
  0.152847158133E-02  0.154681324031E-02  0.156537499919E-02  0.158415949918E-02
  0.160316941317E-02  0.162240744613E-02  0.164187633548E-02  0.166157885151E-02
  0.168151779773E-02  0.170169601130E-02  0.172211636343E-02  0.174278175979E-02
  0.176369514091E-02  0.178485948260E-02  0.180627779639E-02  0.182795312995E-02
  0.184988856751E-02  0.187208723032E-02  0.189455227708E-02  0.191728690441E-02
  0.194029434726E-02  0.196357787943E-02  0.198714081398E-02  0.201098650375E-02
  0.203511834180E-02  0.205953976190E-02  0.208425423904E-02  0.210926528991E-02
  0.213457647339E-02  0.216019139107E-02  0.218611368776E-02  0.221234705201E-02
  0.223889521664E-02  0.226576195924E-02  0.229295110275E-02  0.232046651598E-02
  0.234831211417E-02  0.237649185954E-02  0.240500976186E-02  0.243386987900E-02
  0.246307631755E-02  0.249263323336E-02  0.252254483216E-02  0.255281537014E-02
  0.258344915459E-02  0.261445054444E-02  0.264582395097E-02  0.267757383839E-02
  0.270970472445E-02  0.274222118114E-02  0.277512783531E-02  0.280842936934E-02
  0.284213052177E-02  0.287623608803E-02  0.291075092109E-02  0.294567993214E-02
  0.298102809133E-02  0.301680042842E-02  0.305300203356E-02  0.308963805797E-02
  0.312671371466E-02  0.316423427924E-02  0.320220509059E-02  0.324063155168E-02
  0.327951913030E-02  0.331887335986E-02  0.335869984018E-02  0.339900423826E-02
  0.343979228912E-02  0.348106979659E-02  0.352284263415E-02  0.356511674576E-02
  0.360789814671E-02  0.365119292447E-02  0.369500723956E-02  0.373934732644E-02
  0.378421949435E-02  0.382963012828E-02  0.387558568982E-02  0.392209271810E-02
  0.396915783072E-02  0.401678772469E-02  0.406498917738E-02  0.411376904751E-02
  0.416313427608E-02  0.421309188740E-02  0.426364899004E-02  0.431481277792E-02
  0.436659053126E-02  0.441898961764E-02  0.447201749305E-02  0.452568170296E-02
  0.457998988340E-02  0.463494976200E-02  0.469056915914E-02  0.474685598905E-02
  0.480381826092E-02  0.486146408005E-02  0.491980164901E-02  0.497883926880E-02
  0.503858534003E-02  0.509904836411E-02  0.516023694448E-02  0.522215978781E-02
  0.528482570526E-02  0.534824361373E-02  0.541242253709E-02  0.547737160754E-02
  0.554310006683E-02  0.560961726763E-02  0.567693267484E-02  0.574505586694E-02
  0.581399653734E-02  0.588376449579E-02  0.595436966974E-02  0.602582210578E-02
  0.609813197105E-02  0.617130955470E-02  0.624536526936E-02  0.632030965259E-02
  0.639615336842E-02  0.647290720884E-02  0.655058209535E-02  0.662918908049E-02
  0.670873934946E-02  0.678924422165E-02  0.687071515231E-02  0.695316373414E-02
  0.703660169895E-02  0.712104091933E-02  0.720649341037E-02  0.729297133129E-02
  0.738048698727E-02  0.746905283111E-02  0.755868146509E-02  0.764938564267E-02
  0.774117827038E-02  0.783407240962E-02  0.792808127854E-02  0.802321825388E-02
  0.811949687293E-02  0.821693083540E-02  0.831553400543E-02  0.841532041349E-02
  0.851630425846E-02  0.861849990956E-02  0.872192190847E-02  0.882658497137E-02
  0.893250399103E-02  0.903969403892E-02  0.914817036739E-02  0.925794841180E-02
  0.936904379274E-02  0.948147231825E-02  0.959524998607E-02  0.971039298590E-02
  0.982691770174E-02  0.994484071416E-02  0.100641788027E-01  0.101849489484E-01
  0.103071683357E-01  0.104308543558E-01  0.105560246080E-01  0.106826969033E-01
  0.108108892662E-01  0.109406199374E-01  0.110719073766E-01  0.112047702651E-01
  0.113392275083E-01  0.114752982384E-01  0.116130018173E-01  0.117523578391E-01
  0.118933861332E-01  0.120361067668E-01  0.121805400480E-01  0.123267065285E-01
  0.124746270069E-01  0.126243225310E-01  0.127758144013E-01  0.129291241741E-01
  0.130842736642E-01  0.132412849482E-01  0.134001803676E-01  0.135609825320E-01
  0.137237143224E-01  0.138883988942E-01  0.140550596810E-01  0.142237203971E-01
  0.143944050419E-01  0.145671379024E-01  0.147419435572E-01  0.149188468799E-01
  0.150978730425E-01  0.152790475190E-01  0.154623960892E-01  0.156479448423E-01
  0.158357201804E-01  0.160257488226E-01  0.162180578084E-01  0.164126745021E-01
  0.166096265962E-01  0.168089421153E-01  0.170106494207E-01  0.172147772138E-01
  0.174213545403E-01  0.176304107948E-01  0.178419757243E-01  0.180560794330E-01
  0.182727523862E-01  0.184920254149E-01  0.187139297198E-01  0.189384968765E-01
  0.191657588390E-01  0.193957479451E-01  0.196284969204E-01  0.198640388835E-01
  0.201024073501E-01  0.203436362383E-01  0.205877598731E-01  0.208348129916E-01
  0.210848307475E-01  0.213378487165E-01  0.215939029011E-01  0.218530297359E-01
  0.221152660927E-01  0.223806492858E-01  0.226492170772E-01  0.229210076822E-01
  0.231960597744E-01  0.234744124916E-01  0.237561054415E-01  0.240411787068E-01
  0.243296728513E-01  0.246216289255E-01  0.249170884727E-01  0.252160935343E-01
  0.255186866567E-01  0.258249108966E-01  0.261348098274E-01  0.264484275453E-01
  0.267658086758E-01  0.270869983800E-01  0.274120423605E-01  0.277409868688E-01
  0.280738787113E-01  0.284107652558E-01  0.287516944389E-01  0.290967147721E-01
  0.294458753494E-01  0.297992258536E-01  0.301568165638E-01  0.305186983626E-01
  0.308849227430E-01  0.312555418159E-01  0.316306083177E-01  0.320101756175E-01
  0.323942977249E-01  0.327830292976E-01  0.331764256492E-01  0.335745427569E-01
  0.339774372700E-01  0.343851665173E-01  0.347977885155E-01  0.352153619777E-01
  0.356379463214E-01  0.360656016773E-01  0.364983888974E-01  0.369363695641E-01
  0.373796059989E-01  0.378281612709E-01  0.382820992062E-01  0.387414843966E-01
  0.392063822094E-01  0.396768587959E-01  0.401529811015E-01  0.406348168747E-01
  0.411224346772E-01  0.416159038933E-01  0.421152947400E-01  0.426206782769E-01
  0.431321264162E-01  0.436497119332E-01  0.441735084764E-01  0.447035905781E-01
  0.452400336651E-01  0.457829140690E-01  0.463323090379E-01  0.468882967463E-01
  0.474509563073E-01  0.480203677830E-01  0.485966121964E-01  0.491797715427E-01
  0.497699288012E-01  0.503671679468E-01  0.509715739622E-01  0.515832328498E-01
  0.522022316440E-01  0.528286584237E-01  0.534626023248E-01  0.541041535527E-01
  0.547534033953E-01  0.554104442360E-01  0.560753695669E-01  0.567482740017E-01
  0.574292532897E-01  0.581184043292E-01  0.588158251811E-01  0.595216150833E-01
  0.602358744643E-01  0.609587049579E-01  0.616902094174E-01  0.624304919304E-01
  0.631796578335E-01  0.639378137275E-01  0.647050674923E-01  0.654815283022E-01
  0.662673066418E-01  0.670625143215E-01  0.678672644934E-01  0.686816716673E-01
  0.695058517273E-01  0.703399219480E-01  0.711840010114E-01  0.720382090235E-01
  0.729026675318E-01  0.737774995422E-01  0.746628295367E-01  0.755587834911E-01
  0.764654888930E-01  0.773830747597E-01  0.783116716569E-01  0.792514117167E-01
  0.802024286573E-01  0.811648578012E-01  0.821388360948E-01  0.831245021280E-01
  0.841219961535E-01  0.851314601074E-01  0.861530376287E-01  0.871868740802E-01
  0.882331165692E-01  0.892919139680E-01  0.903634169356E-01  0.914477779388E-01
  0.925451512741E-01  0.936556930894E-01  0.947795614065E-01  0.959169161433E-01
  0.970679191371E-01  0.982327341667E-01  0.994115269767E-01  0.100604465300E+00
  0.101811718884E+00  0.103033459511E+00  0.104269861025E+00  0.105521099357E+00
  0.106787352549E+00  0.108068800780E+00  0.109365626389E+00  0.110678013906E+00
  0.112006150073E+00  0.113350223874E+00  0.114710426560E+00  0.116086951679E+00
  0.117479995099E+00  0.118889755040E+00  0.120316432101E+00  0.121760229286E+00
  0.123221352037E+00  0.124700008262E+00  0.126196408361E+00  0.127710765261E+00
  0.129243294444E+00  0.130794213978E+00  0.132363744546E+00  0.133952109480E+00
  0.135559534794E+00  0.137186249211E+00  0.138832484202E+00  0.140498474012E+00
  0.142184455700E+00  0.143890669169E+00  0.145617357199E+00  0.147364765485E+00
  0.149133142671E+00  0.150922740383E+00  0.152733813268E+00  0.154566619027E+00
  0.156421418455E+00  0.158298475477E+00  0.160198057182E+00  0.162120433869E+00
  0.164065879075E+00  0.166034669624E+00  0.168027085659E+00  0.170043410687E+00
  0.172083931616E+00  0.174148938795E+00  0.176238726061E+00  0.178353590773E+00
  0.180493833863E+00  0.182659759869E+00  0.184851676987E+00  0.187069897111E+00
  0.189314735877E+00  0.191586512707E+00  0.193885550860E+00  0.196212177470E+00
  0.198566723599E+00  0.200949524283E+00  0.203360918574E+00  0.205801249597E+00
  0.208270864592E+00  0.210770114967E+00  0.213299356347E+00  0.215858948623E+00
  0.218449256006E+00  0.221070647079E+00  0.223723494843E+00  0.226408176782E+00
  0.229125074903E+00  0.231874575802E+00  0.234657070711E+00  0.237472955560E+00
  0.240322631027E+00  0.243206502599E+00  0.246124980630E+00  0.249078480398E+00
  0.252067422163E+00  0.255092231228E+00  0.258153338003E+00  0.261251178059E+00
  0.264386192196E+00  0.267558826502E+00  0.270769532420E+00  0.274018766809E+00
  0.277306992011E+00  0.280634675915E+00  0.284002292026E+00  0.287410319531E+00
  0.290859243365E+00  0.294349554285E+00  0.297881748937E+00  0.301456329924E+00
  0.305073805883E+00  0.308734691554E+00  0.312439507852E+00  0.316188781947E+00
  0.319983047330E+00  0.323822843898E+00  0.327708718025E+00  0.331641222641E+00
  0.335620917313E+00  0.339648368320E+00  0.343724148740E+00  0.347848838525E+00
  0.352023024587E+00  0.356247300882E+00  0.360522268493E+00  0.364848535715E+00
  0.369226718143E+00  0.373657438761E+00  0.378141328026E+00  0.382679023963E+00
  0.387271172250E+00  0.391918426317E+00  0.396621447433E+00  0.401380904802E+00
  0.406197475660E+00  0.411071845368E+00  0.416004707512E+00  0.420996764002E+00
  0.426048725170E+00  0.431161309872E+00  0.436335245591E+00  0.441571268538E+00
  0.446870123760E+00  0.452232565246E+00  0.457659356028E+00  0.463151268301E+00
  0.468709083520E+00  0.474333592523E+00  0.480025595633E+00  0.485785902781E+00
  0.491615333614E+00  0.497514717617E+00  0.503484894229E+00  0.509526712959E+00
  0.515641033515E+00  0.521828725917E+00  0.528090670628E+00  0.534427758676E+00
  0.540840891780E+00  0.547330982481E+00  0.553898954271E+00  0.560545741722E+00
  0.567272290623E+00  0.574079558110E+00  0.580968512808E+00  0.587940134961E+00
  0.594995416581E+00  0.602135361580E+00  0.609360985919E+00  0.616673317750E+00
  0.624073397563E+00  0.631562278334E+00  0.639141025674E+00  0.646810717982E+00
  0.654572446597E+00  0.662427315957E+00  0.670376443748E+00  0.678420961073E+00
  0.686562012606E+00  0.694800756757E+00  0.703138365838E+00  0.711576026228E+00
  0.720114938543E+00  0.728756317806E+00  0.737501393619E+00  0.746351410343E+00
  0.755307627267E+00  0.764371318794E+00  0.773543774620E+00  0.782826299915E+00
  0.792220215514E+00  0.801726858100E+00  0.811347580397E+00  0.821083751362E+00
  0.830936756378E+00  0.840907997455E+00  0.850998893424E+00  0.861210880146E+00
  0.871545410707E+00  0.882003955636E+00  0.892588003103E+00  0.903299059141E+00
  0.914138647850E+00  0.925108311625E+00  0.936209611364E+00  0.947444126700E+00
  0.958813456221E+00  0.970319217695E+00  0.981963048308E+00  0.993746604887E+00
  0.100567156415E+01  0.101773962292E+01  0.102995249839E+01  0.104231192837E+01
  0.105481967151E+01  0.106747750757E+01  0.108028723766E+01  0.109325068451E+01
  0.110636969273E+01  0.111964612904E+01  0.113308188259E+01  0.114667886518E+01
  0.116043901156E+01  0.117436427970E+01  0.118845665106E+01  0.120271813087E+01
  0.121715074844E+01  0.123175655742E+01  0.124653763611E+01  0.126149608774E+01
  0.127663404080E+01  0.129195364929E+01  0.130745709308E+01  0.132314657819E+01
  0.133902433713E+01  0.135509262918E+01  0.137135374073E+01  0.138780998562E+01
  0.140446370544E+01  0.142131726991E+01  0.143837307715E+01  0.145563355407E+01
  0.147310115672E+01  0.149077837060E+01  0.150866771105E+01  0.152677172358E+01
  0.154509298427E+01  0.156363410008E+01  0.158239770928E+01  0.160138648179E+01
  0.162060311957E+01  0.164005035701E+01  0.165973096129E+01  0.167964773283E+01
  0.169980350562E+01  0.172020114769E+01  0.174084356146E+01  0.176173368420E+01
  0.178287448841E+01  0.180426898227E+01  0.182592021006E+01  0.184783125258E+01
  0.187000522761E+01  0.189244529034E+01  0.191515463382E+01  0.193813648943E+01
  0.196139412730E+01  0.198493085683E+01  0.200875002711E+01  0.203285502744E+01
  0.205724928777E+01  0.208193627922E+01  0.210691951457E+01  0.213220254874E+01
  0.215778897933E+01  0.218368244708E+01  0.220988663645E+01  0.223640527608E+01
  0.226324213940E+01  0.229040104507E+01  0.231788585761E+01  0.234570048790E+01
  0.237384889376E+01  0.240233508048E+01  0.243116310145E+01  0.246033705866E+01
  0.248986110337E+01  0.251973943661E+01  0.254997630985E+01  0.258057602557E+01
  0.261154293787E+01  0.264288145313E+01  0.267459603057E+01  0.270669118293E+01
  0.273917147713E+01  0.277204153485E+01  0.280530603327E+01  0.283896970567E+01
  0.287303734214E+01  0.290751379024E+01  0.294240395573E+01  0.297771280320E+01
  0.301344535683E+01  0.304960670112E+01  0.308620198153E+01  0.312323640531E+01
  0.316071524217E+01  0.319864382508E+01  0.323702755098E+01  0.327587188159E+01
  0.331518234417E+01  0.335496453230E+01  0.339522410669E+01  0.343596679597E+01
  0.347719839752E+01  0.351892477829E+01  0.356115187563E+01  0.360388569814E+01
  0.364713232651E+01  0.369089791443E+01  0.373518868941E+01  0.378001095368E+01
  0.382537108512E+01  0.387127553814E+01  0.391773084460E+01  0.396474361474E+01
  0.401232053811E+01  0.406046838457E+01  0.410919400519E+01  0.415850433325E+01
  0.420840638525E+01  0.425890726187E+01  0.431001414901E+01  0.436173431880E+01
  0.441407513063E+01  0.446704403219E+01  0.452064856058E+01  0.457489634331E+01
  0.462979509943E+01  0.468535264062E+01  0.474157687231E+01  0.479847579478E+01
  0.485605750431E+01  0.491433019436E+01  0.497330215670E+01  0.503298178258E+01
  0.509337756397E+01  0.515449809474E+01  0.521635207187E+01  0.527894829673E+01
  0.534229567630E+01  0.540640322441E+01  0.547128006310E+01  0.553693542386E+01
  0.560337864895E+01  0.567061919273E+01  0.573866662305E+01  0.580753062252E+01
  0.587722098999E+01  0.594774764187E+01  0.601912061358E+01  0.609135006094E+01
  0.616444626167E+01  0.623841961681E+01  0.631328065221E+01  0.638904002004E+01
  0.646570850028E+01  0.654329700228E+01  0.662181656631E+01  0.670127836511E+01
  0.678169370549E+01  0.686307402995E+01  0.694543091831E+01  0.702877608933E+01
  0.711312140240E+01  0.719847885923E+01  0.728486060554E+01  0.737227893281E+01
  0.746074628000E+01  0.755027523536E+01  0.764087853819E+01  0.773256908065E+01
  0.782535990962E+01  0.791926422853E+01  0.801429539927E+01  0.811046694406E+01
  0.820779254739E+01  0.830628605796E+01  0.840596149066E+01  0.850683302855E+01
  0.860891502489E+01  0.871222200519E+01  0.881676866925E+01  0.892256989328E+01
  0.902964073200E+01  0.913799642078E+01  0.924765237783E+01  0.935862420637E+01
  0.947092769684E+01  0.958457882921E+01  0.969959377516E+01  0.981598890046E+01
  0.993378076726E+01  0.100529861365E+02  0.101736219701E+02  0.102957054337E+02
  0.104192538990E+02  0.105442849457E+02  0.106708163651E+02  0.107988661615E+02
  0.109284525554E+02  0.110595939861E+02  0.111923091139E+02  0.113266168233E+02
  0.114625362252E+02  0.116000866599E+02  0.117392876998E+02  0.118801591522E+02
  0.120227210620E+02  0.121669937147E+02  0.123129976393E+02  0.124607536110E+02
  0.126102826543E+02  0.127616060462E+02  0.129147453187E+02  0.130697222626E+02
  0.132265589297E+02  0.133852776369E+02  0.135459009685E+02  0.137084517801E+02
  0.138729532015E+02  0.140394286399E+02  0.142079017836E+02  0.143783966050E+02
  0.145509373642E+02  0.147255486126E+02  0.149022551960E+02  0.150810822583E+02
  0.152620552454E+02  0.154451999084E+02  0.156305423073E+02  0.158181088149E+02
  0.160079261207E+02  0.162000212342E+02  0.163944214890E+02  0.165911545469E+02
  0.167902484014E+02  0.169917313822E+02  0.171956321588E+02  0.174019797447E+02
  0.176108035017E+02  0.178221331437E+02  0.180359987414E+02  0.182524307263E+02
  0.184714598950E+02  0.186931174138E+02  0.189174348227E+02  0.191444440406E+02
  0.193741773691E+02  0.196066674975E+02  0.198419475075E+02  0.200800508776E+02
  0.203210114881E+02  0.205648636260E+02  0.208116419895E+02  0.210613816933E+02
  0.213141182737E+02  0.215698876930E+02  0.218287263453E+02  0.220906710614E+02
  0.223557591141E+02  0.226240282235E+02  0.228955165622E+02  0.231702627609E+02
  0.234483059141E+02  0.237296855850E+02  0.240144418121E+02  0.243026151138E+02
  0.245942464952E+02  0.248893774531E+02  0.251880499826E+02  0.254903065823E+02
  0.257961902613E+02  0.261057445445E+02  0.264190134790E+02  0.267360416408E+02
  0.270568741404E+02  0.273815566301E+02  0.277101353097E+02  0.280426569334E+02
  0.283791688166E+02  0.287197188424E+02  0.290643554685E+02  0.294131277341E+02
  0.297660852669E+02  0.301232782902E+02  0.304847576296E+02  0.308505747212E+02
  0.312207816178E+02  0.315954309973E+02  0.319745761692E+02  0.323582710833E+02
  0.327465703363E+02  0.331395291803E+02  0.335372035305E+02  0.339396499728E+02
  0.343469257725E+02  0.347590888818E+02  0.351761979483E+02  0.355983123237E+02
  0.360254920716E+02  0.364577979765E+02  0.368952915522E+02  0.373380350508E+02
  0.377860914714E+02  0.382395245691E+02  0.386983988639E+02  0.391627796503E+02
  0.396327330061E+02  0.401083258022E+02  0.405896257118E+02  0.410767012203E+02
  0.415696216350E+02  0.420684570946E+02  0.425732785797E+02  0.430841579227E+02
  0.436011678177E+02  0.441243818316E+02
   </PP_R>
   <PP_RAB type="real"  size="1130" columns="4">
  0.745535679080E-06  0.754482107229E-06  0.763535892515E-06  0.772698323225E-06
  0.781970703104E-06  0.791354351541E-06  0.800850603760E-06  0.810460811005E-06
  0.820186340737E-06  0.830028576826E-06  0.839988919748E-06  0.850068786785E-06
  0.860269612226E-06  0.870592847573E-06  0.881039961744E-06  0.891612441285E-06
  0.902311790580E-06  0.913139532067E-06  0.924097206452E-06  0.935186372929E-06
  0.946408609405E-06  0.957765512717E-06  0.969258698870E-06  0.980889803256E-06
  0.992660480896E-06  0.100457240667E-05  0.101662727555E-05  0.102882680285E-05
  0.104117272449E-05  0.105366679718E-05  0.106631079875E-05  0.107910652833E-05
  0.109205580667E-05  0.110516047635E-05  0.111842240207E-05  0.113184347089E-05
  0.114542559254E-05  0.115917069965E-05  0.117308074805E-05  0.118715771703E-05
  0.120140360963E-05  0.121582045295E-05  0.123041029838E-05  0.124517522196E-05
  0.126011732463E-05  0.127523873252E-05  0.129054159731E-05  0.130602809648E-05
  0.132170043364E-05  0.133756083884E-05  0.135361156891E-05  0.136985490773E-05
  0.138629316663E-05  0.140292868463E-05  0.141976382884E-05  0.143680099479E-05
  0.145404260673E-05  0.147149111801E-05  0.148914901142E-05  0.150701879956E-05
  0.152510302515E-05  0.154340426146E-05  0.156192511259E-05  0.158066821394E-05
  0.159963623251E-05  0.161883186730E-05  0.163825784971E-05  0.165791694391E-05
  0.167781194723E-05  0.169794569060E-05  0.171832103889E-05  0.173894089135E-05
  0.175980818205E-05  0.178092588023E-05  0.180229699080E-05  0.182392455469E-05
  0.184581164934E-05  0.186796138914E-05  0.189037692580E-05  0.191306144891E-05
  0.193601818630E-05  0.195925040454E-05  0.198276140939E-05  0.200655454630E-05
  0.203063320086E-05  0.205500079927E-05  0.207966080886E-05  0.210461673857E-05
  0.212987213943E-05  0.215543060510E-05  0.218129577237E-05  0.220747132163E-05
  0.223396097749E-05  0.226076850922E-05  0.228789773133E-05  0.231535250411E-05
  0.234313673416E-05  0.237125437497E-05  0.239970942747E-05  0.242850594060E-05
  0.245764801189E-05  0.248713978803E-05  0.251698546548E-05  0.254718929107E-05
  0.257775556256E-05  0.260868862931E-05  0.263999289287E-05  0.267167280758E-05
  0.270373288127E-05  0.273617767585E-05  0.276901180796E-05  0.280223994965E-05
  0.283586682905E-05  0.286989723100E-05  0.290433599777E-05  0.293918802974E-05
  0.297445828610E-05  0.301015178553E-05  0.304627360696E-05  0.308282889024E-05
  0.311982283692E-05  0.315726071097E-05  0.319514783950E-05  0.323348961357E-05
  0.327229148894E-05  0.331155898680E-05  0.335129769464E-05  0.339151326698E-05
  0.343221142618E-05  0.347339796330E-05  0.351507873886E-05  0.355725968372E-05
  0.359994679993E-05  0.364314616153E-05  0.368686391547E-05  0.373110628245E-05
  0.377587955784E-05  0.382119011254E-05  0.386704439389E-05  0.391344892661E-05
  0.396041031373E-05  0.400793523750E-05  0.405603046035E-05  0.410470282587E-05
  0.415395925978E-05  0.420380677090E-05  0.425425245215E-05  0.430530348158E-05
  0.435696712335E-05  0.440925072883E-05  0.446216173758E-05  0.451570767843E-05
  0.456989617057E-05  0.462473492462E-05  0.468023174371E-05  0.473639452464E-05
  0.479323125893E-05  0.485075003404E-05  0.490895903445E-05  0.496786654286E-05
  0.502748094138E-05  0.508781071267E-05  0.514886444123E-05  0.521065081452E-05
  0.527317862430E-05  0.533645676779E-05  0.540049424900E-05  0.546530017999E-05
  0.553088378215E-05  0.559725438753E-05  0.566442144019E-05  0.573239449747E-05
  0.580118323144E-05  0.587079743021E-05  0.594124699938E-05  0.601254196337E-05
  0.608469246693E-05  0.615770877653E-05  0.623160128185E-05  0.630638049723E-05
  0.638205706320E-05  0.645864174796E-05  0.653614544893E-05  0.661457919432E-05
  0.669395414465E-05  0.677428159439E-05  0.685557297352E-05  0.693783984920E-05
  0.702109392739E-05  0.710534705452E-05  0.719061121918E-05  0.727689855381E-05
  0.736422133645E-05  0.745259199249E-05  0.754202309640E-05  0.763252737356E-05
  0.772411770204E-05  0.781680711446E-05  0.791060879984E-05  0.800553610544E-05
  0.810160253870E-05  0.819882176917E-05  0.829720763040E-05  0.839677412196E-05
  0.849753541142E-05  0.859950583636E-05  0.870269990640E-05  0.880713230527E-05
  0.891281789294E-05  0.901977170765E-05  0.912800896814E-05  0.923754507576E-05
  0.934839561667E-05  0.946057636407E-05  0.957410328044E-05  0.968899251981E-05
  0.980526043004E-05  0.992292355520E-05  0.100419986379E-04  0.101625026215E-04
  0.102844526530E-04  0.104078660848E-04  0.105327604778E-04  0.106591536036E-04
  0.107870634468E-04  0.109165082082E-04  0.110475063067E-04  0.111800763823E-04