
     Program PWSCF v.6.5 starts on 18Jul2020 at 16:13:26 

     This program is part of the open-source Quantum ESPRESSO suite
     for quantum simulation of materials; please cite
         "P. Giannozzi et al., J. Phys.:Condens. Matter 21 395502 (2009);
         "P. Giannozzi et al., J. Phys.:Condens. Matter 29 465901 (2017);
          URL http://www.quantum-espresso.org", 
     in publications or presentations arising from this work. More details at
     http://www.quantum-espresso.org/quote

     Parallel version (MPI), running on     8 processors

     MPI processes distributed on     1 nodes
     R & G space division:  proc/nbgrp/npool/nimage =       8
     Waiting for input...
     Reading input from standard input

     Current dimensions of program PWSCF are:
     Max number of different atomic species (ntypx) = 10
     Max number of k-points (npk) =  40000
     Max angular momentum in pseudopotentials (lmaxx) =  3
               file U.rel-pbe-spfn-rrkjus_psl.1.0.0.UPF: wavefunction(s)  5F renormalized

     Subspace diagonalization in iterative solution of the eigenvalue problem:
     a serial algorithm will be used

     Found symmetry operation: I + ( -0.5000 -0.5000  0.0000)
     This is a supercell, fractional translations are disabled

     Parallelization info
     --------------------
     sticks:   dense  smooth     PW     G-vecs:    dense   smooth      PW
     Min         186     186     54                 6514     6514    1034
     Max         187     187     55                 6517     6517    1037
     Sum        1493    1493    433                52125    52125    8277



     bravais-lattice index     =            8
     lattice parameter (alat)  =       5.3933  a.u.
     unit-cell volume          =     560.0907 (a.u.)^3
     number of atoms/cell      =            4
     number of atomic types    =            1
     number of electrons       =        56.00
     number of Kohn-Sham states=           74
     kinetic-energy cutoff     =      78.0000  Ry
     charge density cutoff     =     312.0000  Ry
     convergence threshold     =      1.0E-10
     mixing beta               =       0.5000
     number of iterations used =            8  plain     mixing
     Exchange-correlation= PBE
                           (   1   4   3   4   0   0   0)
     Non magnetic calculation with spin-orbit


     celldm(1)=   5.393278  celldm(2)=   2.056412  celldm(3)=   1.736160
     celldm(4)=   0.000000  celldm(5)=   0.000000  celldm(6)=   0.000000

     crystal axes: (cart. coord. in units of alat)
               a(1) = (   1.000000   0.000000   0.000000 )  
               a(2) = (   0.000000   2.056412   0.000000 )  
               a(3) = (   0.000000   0.000000   1.736160 )  

     reciprocal axes: (cart. coord. in units 2 pi/alat)
               b(1) = (  1.000000  0.000000  0.000000 )  
               b(2) = (  0.000000  0.486284  0.000000 )  
               b(3) = (  0.000000  0.000000  0.575984 )  


     PseudoPot. # 1 for U  read from file:
     ../U.rel-pbe-spfn-rrkjus_psl.1.0.0.UPF
     MD5 check sum: 37aecf02b57b5a45ea9b56cdc2d32e64
     Pseudo is Ultrasoft + core correction, Zval = 14.0
     Generated using "atomic" code by A. Dal Corso v.6.2.2
     Using radial grid of 1291 points, 14 beta functions with: 
                l(1) =   0
                l(2) =   0
                l(3) =   1
                l(4) =   1
                l(5) =   1
                l(6) =   1
                l(7) =   2
                l(8) =   2
                l(9) =   2
               l(10) =   2
               l(11) =   3
               l(12) =   3
               l(13) =   3
               l(14) =   3
     Q(r) pseudized with 0 coefficients 


     atomic species   valence    mass     pseudopotential
        U             14.00   238.02891     U ( 1.00)

      4 Sym. Ops., with inversion, found


                                    s                        frac. trans.

      isym =  1     identity                                     

 cryst.   s( 1) = (     1          0          0      )
                  (     0          1          0      )
                  (     0          0          1      )

 cart.    s( 1) = (  1.0000000  0.0000000  0.0000000 )
                  (  0.0000000  1.0000000  0.0000000 )
                  (  0.0000000  0.0000000  1.0000000 )


      isym =  2     180 deg rotation - cart. axis [1,0,0]        

 cryst.   s( 2) = (     1          0          0      )
                  (     0         -1          0      )
                  (     0          0         -1      )

 cart.    s( 2) = (  1.0000000  0.0000000  0.0000000 )
                  (  0.0000000 -1.0000000  0.0000000 )
                  (  0.0000000  0.0000000 -1.0000000 )


      isym =  3     inversion                                    

 cryst.   s( 3) = (    -1          0          0      )
                  (     0         -1          0      )
                  (     0          0         -1      )

 cart.    s( 3) = ( -1.0000000  0.0000000  0.0000000 )
                  (  0.0000000 -1.0000000  0.0000000 )
                  (  0.0000000  0.0000000 -1.0000000 )


      isym =  4     inv. 180 deg rotation - cart. axis [1,0,0]   

 cryst.   s( 4) = (    -1          0          0      )
                  (     0          1          0      )
                  (     0          0          1      )

 cart.    s( 4) = ( -1.0000000  0.0000000  0.0000000 )
                  (  0.0000000  1.0000000  0.0000000 )
                  (  0.0000000  0.0000000  1.0000000 )


     double point group C_2h (2/m) 
     there are  8 classes and  4 irreducible representations
     the character table:

       E     -E    C2    -C2   i     -i    s_h   -s_h 
                                                      
G_3+   1.00 -1.00  0.00  0.00  1.00 -1.00  0.00  0.00
G_4+   1.00 -1.00  0.00  0.00  1.00 -1.00  0.00  0.00
G_3-   1.00 -1.00  0.00  0.00 -1.00  1.00  0.00  0.00
G_4-   1.00 -1.00  0.00  0.00 -1.00  1.00  0.00  0.00

     imaginary part

       E     -E    C2    -C2   i     -i    s_h   -s_h 
                                                      
G_3+   0.00  0.00  1.00 -1.00  0.00  0.00  1.00 -1.00
G_4+   0.00  0.00 -1.00  1.00  0.00  0.00 -1.00  1.00
G_3-   0.00  0.00  1.00 -1.00  0.00  0.00 -1.00  1.00
G_4-   0.00  0.00 -1.00  1.00  0.00  0.00  1.00 -1.00

     the symmetry operations in each class and the name of the first element:

     E             1
          identity                                               
     -E           -1
          identity E                                             
     C2            2
          180 deg rotation - cart. axis [1,0,0]                  
     -C2          -2
          180 deg rotation - cart. axis [1,0,0] E                
     i             3
          inversion                                              
     -i           -3
          inversion E                                            
     s_h           4
          inv. 180 deg rotation - cart. axis [1,0,0]             
     -s_h         -4
          inv. 180 deg rotation - cart. axis [1,0,0] E           

   Cartesian axes

     site n.     atom                  positions (alat units)
         1           U   tau(   1) = (   0.0000000   0.2107814   0.4340399  )
         2           U   tau(   2) = (   0.0000000   1.8456307   1.3021198  )
         3           U   tau(   3) = (   0.5000000   1.2389874   0.4340399  )
         4           U   tau(   4) = (   0.5000000   0.8174247   1.3021198  )

   Crystallographic axes

     site n.     atom                  positions (cryst. coord.)
         1           U   tau(   1) = (  0.0000000  0.1024996  0.2500000  )
         2           U   tau(   2) = (  0.0000000  0.8975004  0.7500000  )
         3           U   tau(   3) = (  0.5000000  0.6024996  0.2500000  )
         4           U   tau(   4) = (  0.5000000  0.3975004  0.7500000  )

     number of k points=    30  Methfessel-Paxton smearing, width (Ry)=  0.0020
                       cart. coord. in units 2pi/alat
        k(    1) = (   0.0000000   0.0000000   0.0000000), wk =   0.0156250
        k(    2) = (   0.0000000   0.0000000   0.1439960), wk =   0.0312500
        k(    3) = (   0.0000000   0.0000000  -0.2879919), wk =   0.0156250
        k(    4) = (   0.0000000   0.1215710   0.0000000), wk =   0.0312500
        k(    5) = (   0.0000000   0.1215710   0.1439960), wk =   0.0312500
        k(    6) = (   0.0000000   0.1215710  -0.2879919), wk =   0.0312500
        k(    7) = (   0.0000000  -0.2431419   0.0000000), wk =   0.0156250
        k(    8) = (   0.0000000  -0.2431419   0.1439960), wk =   0.0312500
        k(    9) = (   0.0000000  -0.2431419  -0.2879919), wk =   0.0156250
        k(   10) = (   0.2500000   0.0000000   0.0000000), wk =   0.0312500
        k(   11) = (   0.2500000   0.0000000   0.1439960), wk =   0.0625000
        k(   12) = (   0.2500000   0.0000000  -0.2879919), wk =   0.0312500
        k(   13) = (   0.2500000   0.1215710   0.0000000), wk =   0.0625000
        k(   14) = (   0.2500000   0.1215710   0.1439960), wk =   0.0625000
        k(   15) = (   0.2500000   0.1215710  -0.2879919), wk =   0.0625000
        k(   16) = (   0.2500000  -0.2431419   0.0000000), wk =   0.0312500
        k(   17) = (   0.2500000  -0.2431419   0.1439960), wk =   0.0625000
        k(   18) = (   0.2500000  -0.2431419  -0.2879919), wk =   0.0312500
        k(   19) = (  -0.5000000   0.0000000   0.0000000), wk =   0.0156250
        k(   20) = (  -0.5000000   0.0000000   0.1439960), wk =   0.0312500
        k(   21) = (  -0.5000000   0.0000000  -0.2879919), wk =   0.0156250
        k(   22) = (  -0.5000000   0.1215710   0.0000000), wk =   0.0312500
        k(   23) = (  -0.5000000   0.1215710   0.1439960), wk =   0.0312500
        k(   24) = (  -0.5000000   0.1215710  -0.2879919), wk =   0.0312500
        k(   25) = (  -0.5000000  -0.2431419   0.0000000), wk =   0.0156250
        k(   26) = (  -0.5000000  -0.2431419   0.1439960), wk =   0.0312500
        k(   27) = (  -0.5000000  -0.2431419  -0.2879919), wk =   0.0156250
        k(   28) = (   0.0000000   0.1215710  -0.1439960), wk =   0.0312500
        k(   29) = (  -0.2500000   0.1215710  -0.1439960), wk =   0.0625000
        k(   30) = (   0.5000000   0.1215710  -0.1439960), wk =   0.0312500

                       cryst. coord.
        k(    1) = (   0.0000000   0.0000000   0.0000000), wk =   0.0156250
        k(    2) = (   0.0000000   0.0000000   0.2500000), wk =   0.0312500
        k(    3) = (   0.0000000   0.0000000  -0.5000000), wk =   0.0156250
        k(    4) = (   0.0000000   0.2500000   0.0000000), wk =   0.0312500
        k(    5) = (   0.0000000   0.2500000   0.2500000), wk =   0.0312500
        k(    6) = (   0.0000000   0.2500000  -0.5000000), wk =   0.0312500
        k(    7) = (   0.0000000  -0.5000000   0.0000000), wk =   0.0156250
        k(    8) = (   0.0000000  -0.5000000   0.2500000), wk =   0.0312500
        k(    9) = (   0.0000000  -0.5000000  -0.5000000), wk =   0.0156250
        k(   10) = (   0.2500000   0.0000000   0.0000000), wk =   0.0312500
        k(   11) = (   0.2500000   0.0000000   0.2500000), wk =   0.0625000
        k(   12) = (   0.2500000   0.0000000  -0.5000000), wk =   0.0312500
        k(   13) = (   0.2500000   0.2500000   0.0000000), wk =   0.0625000
        k(   14) = (   0.2500000   0.2500000   0.2500000), wk =   0.0625000
        k(   15) = (   0.2500000   0.2500000  -0.5000000), wk =   0.0625000
        k(   16) = (   0.2500000  -0.5000000   0.0000000), wk =   0.0312500
        k(   17) = (   0.2500000  -0.5000000   0.2500000), wk =   0.0625000
        k(   18) = (   0.2500000  -0.5000000  -0.5000000), wk =   0.0312500
        k(   19) = (  -0.5000000   0.0000000   0.0000000), wk =   0.0156250
        k(   20) = (  -0.5000000   0.0000000   0.2500000), wk =   0.0312500
        k(   21) = (  -0.5000000   0.0000000  -0.5000000), wk =   0.0156250
        k(   22) = (  -0.5000000   0.2500000   0.0000000), wk =   0.0312500
        k(   23) = (  -0.5000000   0.2500000   0.2500000), wk =   0.0312500
        k(   24) = (  -0.5000000   0.2500000  -0.5000000), wk =   0.0312500
        k(   25) = (  -0.5000000  -0.5000000   0.0000000), wk =   0.0156250
        k(   26) = (  -0.5000000  -0.5000000   0.2500000), wk =   0.0312500
        k(   27) = (  -0.5000000  -0.5000000  -0.5000000), wk =   0.0156250
        k(   28) = (   0.0000000   0.2500000  -0.2500000), wk =   0.0312500
        k(   29) = (  -0.2500000   0.2500000  -0.2500000), wk =   0.0625000
        k(   30) = (   0.5000000   0.2500000  -0.2500000), wk =   0.0312500

     Dense  grid:    52125 G-vectors     FFT dimensions: (  32,  64,  54)

     Dynamical RAM for                 wfc:       1.84 MB

     Dynamical RAM for     wfc (w. buffer):      56.99 MB

     Dynamical RAM for           str. fact:       0.10 MB

     Dynamical RAM for           local pot:       0.00 MB

     Dynamical RAM for          nlocal pot:       3.08 MB

     Dynamical RAM for                qrad:       8.52 MB

     Dynamical RAM for          rho,v,vnew:       2.51 MB

     Dynamical RAM for               rhoin:       0.84 MB

     Dynamical RAM for            rho*nmix:       6.36 MB

     Dynamical RAM for           G-vectors:       0.42 MB

     Dynamical RAM for          h,s,v(r/c):       4.01 MB

     Dynamical RAM for          <psi|beta>:       0.56 MB

     Dynamical RAM for                 psi:       7.35 MB

     Dynamical RAM for                hpsi:       7.35 MB

     Dynamical RAM for                spsi:       7.35 MB

     Dynamical RAM for      wfcinit/wfcrot:       5.49 MB

     Dynamical RAM for           addusdens:     197.29 MB

     Estimated static dynamical RAM per process >      79.89 MB

     Estimated max dynamical RAM per process >     277.18 MB

     Estimated total dynamical RAM >       2.17 GB

     Initial potential from superposition of free atoms

     starting charge   55.98267, renormalised to   56.00000
     Starting wfcs are  136 randomized atomic wfcs

     total cpu time spent up to now is        9.4 secs

     Self-consistent Calculation

     iteration #  1     ecut=    78.00 Ry     beta= 0.50
     Davidson diagonalization with overlap
     ethr =  1.00E-02,  avg # of iterations =  2.0

     total cpu time spent up to now is       20.2 secs

     total energy              =    -519.04053699 Ry
     Harris-Foulkes estimate   =    -519.77315891 Ry
     estimated scf accuracy    <       1.15359033 Ry

     iteration #  2     ecut=    78.00 Ry     beta= 0.50
     Davidson diagonalization with overlap
     ethr =  2.06E-03,  avg # of iterations =  3.7

     total cpu time spent up to now is       33.5 secs

     total energy              =    -519.31324794 Ry
     Harris-Foulkes estimate   =    -519.53815718 Ry
     estimated scf accuracy    <       0.48990459 Ry

     iteration #  3     ecut=    78.00 Ry     beta= 0.50
     Davidson diagonalization with overlap
     ethr =  8.75E-04,  avg # of iterations =  2.8

     total cpu time spent up to now is       44.1 secs

     total energy              =    -519.42583800 Ry
     Harris-Foulkes estimate   =    -519.43095039 Ry
     estimated scf accuracy    <       0.01177861 Ry

     iteration #  4     ecut=    78.00 Ry     beta= 0.50
     Davidson diagonalization with overlap
     c_bands:  1 eigenvalues not converged
     c_bands:  1 eigenvalues not converged
     c_bands:  1 eigenvalues not converged
     ethr =  2.10E-05,  avg # of iterations = 11.4

     total cpu time spent up to now is       64.9 secs

     total energy              =    -519.41487676 Ry
     Harris-Foulkes estimate   =    -519.45573385 Ry
     estimated scf accuracy    <       0.73644124 Ry

     iteration #  5     ecut=    78.00 Ry     beta= 0.50
     Davidson diagonalization with overlap
     ethr =  2.10E-05,  avg # of iterations =  7.2

     total cpu time spent up to now is       82.2 secs

     total energy              =    -519.43517948 Ry
     Harris-Foulkes estimate   =    -519.43531494 Ry
     estimated scf accuracy    <       0.00134177 Ry

     iteration #  6     ecut=    78.00 Ry     beta= 0.50
     Davidson diagonalization with overlap
     ethr =  2.40E-06,  avg # of iterations =  7.0

     total cpu time spent up to now is       95.4 secs

     total energy              =    -519.43534013 Ry
     Harris-Foulkes estimate   =    -519.43534513 Ry
     estimated scf accuracy    <       0.00007688 Ry

     iteration #  7     ecut=    78.00 Ry     beta= 0.50
     Davidson diagonalization with overlap
     ethr =  1.37E-07,  avg # of iterations =  5.9

     total cpu time spent up to now is      109.6 secs

     total energy              =    -519.43537977 Ry
     Harris-Foulkes estimate   =    -519.43537817 Ry
     estimated scf accuracy    <       0.00002464 Ry

     iteration #  8     ecut=    78.00 Ry     beta= 0.50
     Davidson diagonalization with overlap
     ethr =  4.40E-08,  avg # of iterations =  3.2

     total cpu time spent up to now is      120.3 secs

     total energy              =    -519.43538477 Ry
     Harris-Foulkes estimate   =    -519.43538388 Ry
     estimated scf accuracy    <       0.00000477 Ry

     iteration #  9     ecut=    78.00 Ry     beta= 0.50
     Davidson diagonalization with overlap
     ethr =  8.52E-09,  avg # of iterations =  5.8

     total cpu time spent up to now is      134.2 secs

     total energy              =    -519.43538682 Ry
     Harris-Foulkes estimate   =    -519.43538687 Ry
     estimated scf accuracy    <       0.00000329 Ry

     iteration # 10     ecut=    78.00 Ry     beta= 0.50
     Davidson diagonalization with overlap
     ethr =  5.87E-09,  avg # of iterations =  2.1

     total cpu time spent up to now is      143.8 secs

     total energy              =    -519.43538725 Ry
     Harris-Foulkes estimate   =    -519.43538717 Ry
     estimated scf accuracy    <       0.00000030 Ry

     iteration # 11     ecut=    78.00 Ry     beta= 0.50
     Davidson diagonalization with overlap
     ethr =  5.32E-10,  avg # of iterations =  6.1

     total cpu time spent up to now is      159.1 secs

     total energy              =    -519.43538749 Ry
     Harris-Foulkes estimate   =    -519.43538746 Ry
     estimated scf accuracy    <       0.00000031 Ry

     iteration # 12     ecut=    78.00 Ry     beta= 0.50
     Davidson diagonalization with overlap
     ethr =  5.32E-10,  avg # of iterations =  2.0

     total cpu time spent up to now is      168.6 secs

     total energy              =    -519.43538751 Ry
     Harris-Foulkes estimate   =    -519.43538751 Ry
     estimated scf accuracy    <       0.00000004 Ry

     iteration # 13     ecut=    78.00 Ry     beta= 0.50
     Davidson diagonalization with overlap
     ethr =  6.67E-11,  avg # of iterations =  5.4

     total cpu time spent up to now is      181.5 secs

     total energy              =    -519.43538752 Ry
     Harris-Foulkes estimate   =    -519.43538752 Ry
     estimated scf accuracy    <       0.00000002 Ry

     iteration # 14     ecut=    78.00 Ry     beta= 0.50
     Davidson diagonalization with overlap
     ethr =  3.87E-11,  avg # of iterations =  2.2

     total cpu time spent up to now is      191.5 secs

     total energy              =    -519.43538753 Ry
     Harris-Foulkes estimate   =    -519.43538753 Ry
     estimated scf accuracy    <          3.2E-09 Ry

     iteration # 15     ecut=    78.00 Ry     beta= 0.50
     Davidson diagonalization with overlap
     ethr =  5.77E-12,  avg # of iterations =  5.4

     total cpu time spent up to now is      203.6 secs

     total energy              =    -519.43538753 Ry
     Harris-Foulkes estimate   =    -519.43538753 Ry
     estimated scf accuracy    <          5.5E-10 Ry

     iteration # 16     ecut=    78.00 Ry     beta= 0.50
     Davidson diagonalization with overlap
     ethr =  9.87E-13,  avg # of iterations =  5.1

     total cpu time spent up to now is      216.3 secs

     End of self-consistent calculation

          k = 0.0000 0.0000 0.0000 (  6535 PWs)   bands (ev):

   -19.7437 -19.7437 -19.2894 -19.2894 -18.7908 -18.7908 -18.7276 -18.7276
    -1.6683  -1.6683  -1.5771  -1.5771  -0.9725  -0.9725   0.2668   0.2668
     5.5317   5.5317   5.9404   5.9404   6.6583   6.6583   9.1053   9.1053
     9.2739   9.2739   9.9594   9.9594  10.0759  10.0759  10.7208  10.7208
    19.7184  19.7184  20.7520  20.7520  20.9680  20.9680  22.9170  22.9170
    22.9466  22.9466  23.0356  23.0356  23.1118  23.1118  23.1610  23.1610
    23.4480  23.4480  23.5098  23.5098  23.5726  23.5726  24.0380  24.0380
    24.6270  24.6270  24.7010  24.7010  24.8525  24.8525  24.8662  24.8662
    24.8737  24.8737  25.0264  25.0264  25.1108  25.1108  25.1415  25.1415
    25.2481  25.2482

     occupation numbers 
     1.0000   1.0000   1.0000   1.0000   1.0000   1.0000   1.0000   1.0000
     1.0000   1.0000   1.0000   1.0000   1.0000   1.0000   1.0000   1.0000
     1.0000   1.0000   1.0000   1.0000   1.0000   1.0000   1.0000   1.0000
     1.0000   1.0000   1.0000   1.0000   1.0000   1.0000   1.0000   1.0000
     1.0000   1.0000   1.0000   1.0000   1.0000   1.0000   1.0000   1.0000
     1.0000   1.0000   1.0000   1.0000   1.0000   1.0000   1.0000   1.0000
     1.0000   1.0000   1.0000   1.0000   1.0000   1.0000   1.0148   1.0148
    -0.0000  -0.0000  -0.0000  -0.0000  -0.0000  -0.0000  -0.0000  -0.0000
    -0.0000  -0.0000  -0.0000  -0.0000  -0.0000  -0.0000  -0.0000  -0.0000
    -0.0000  -0.0000

          k = 0.0000 0.0000 0.1440 (  6516 PWs)   bands (ev):

   -19.6158 -19.6158 -19.2097 -19.2097 -18.9434 -18.9434 -18.8124 -18.8124
    -1.5487  -1.5487  -1.3473  -1.3473  -1.1103  -1.1103   0.0195   0.0195
     5.7714   5.7714   6.3722   6.3722   6.5973   6.5973   9.1022   9.1022
     9.3175   9.3175   9.6685   9.6685  10.0909  10.0909  10.2884  10.2884
    20.6400  20.6400  20.8355  20.8355  20.9919  20.9919  21.5351  21.5351
    21.9994  21.9994  22.8737  22.8737  23.0564  23.0564  23.0901  23.0901
    23.1581  23.1581  23.5341  23.5341  24.1951  24.1951  24.2787  24.2787
    24.6459  24.6459  24.6594  24.6594  24.7364  24.7364  24.7497  24.7497
    24.8432  24.8432  24.8726  24.8726  25.0119  25.0119  25.0495  25.0495
    25.1064  25.1065

     occupation numbers 
     1.0000   1.0000   1.0000   1.0000   1.0000   1.0000   1.0000   1.0000
     1.0000   1.0000   1.0000   1.0000   1.0000   1.0000   1.0000   1.0000
     1.0000   1.0000   1.0000   1.0000   1.0000   1.0000   1.0000   1.0000
     1.0000   1.0000   1.0000   1.0000   1.0000   1.0000   1.0000   1.0000
     1.0000   1.0000   1.0000   1.0000   1.0000   1.0000   1.0000   1.0000
     1.0000   1.0000   1.0000   1.0000   1.0000   1.0000   1.0000   1.0000
     1.0000   1.0000   1.0000   1.0000  -0.0000  -0.0000  -0.0000  -0.0000
    -0.0000  -0.0000  -0.0000  -0.0000  -0.0000  -0.0000  -0.0000  -0.0000
    -0.0000  -0.0000  -0.0000  -0.0000  -0.0000  -0.0000  -0.0000  -0.0000
    -0.0000  -0.0000

          k = 0.0000 0.0000-0.2880 (  6538 PWs)   bands (ev):

   -19.2919 -19.2919 -19.2919 -19.2919 -19.0136 -19.0136 -19.0136 -19.0136
    -1.3837  -1.3837  -1.3837  -1.3837  -0.6263  -0.6263  -0.6263  -0.6263
     6.2577   6.2577   6.2577   6.2577   7.6246   7.6246   7.6246   7.6246
     9.6047   9.6047   9.6047   9.6047  10.1428  10.1428  10.1428  10.1428
    20.6771  20.6771  20.6771  20.6771  21.0604  21.0604  21.0604  21.0604
    21.9584  21.9584  21.9584  21.9584  22.8742  22.8742  22.8742  22.8742
    23.5388  23.5388  23.5388  23.5388  24.5236  24.5236  24.5236  24.5237
    24.5755  24.5755  24.5755  24.5755  24.8266  24.8266  24.8266  24.8266
    24.8535  24.8535  24.8535  24.8535  24.9788  24.9788  24.9788  24.9788
    25.2712  25.2712

     occupation numbers 
     1.0000   1.0000   1.0000   1.0000   1.0000   1.0000   1.0000   1.0000
     1.0000   1.0000   1.0000   1.0000   1.0000   1.0000   1.0000   1.0000
     1.0000   1.0000   1.0000   1.0000   1.0000   1.0000   1.0000   1.0000
     1.0000   1.0000   1.0000   1.0000   1.0000   1.0000   1.0000   1.0000
     1.0000   1.0000   1.0000   1.0000   1.0000   1.0000   1.0000   1.0000
     1.0000   1.0000   1.0000   1.0000   1.0000   1.0000   1.0000   1.0000
     1.0000   1.0000   1.0000   1.0000  -0.0000  -0.0000  -0.0000  -0.0000
    -0.0000  -0.0000  -0.0000  -0.0000  -0.0000  -0.0000  -0.0000  -0.0000
    -0.0000  -0.0000  -0.0000  -0.0000  -0.0000  -0.0000  -0.0000  -0.0000
    -0.0000  -0.0000

          k = 0.0000 0.1216 0.0000 (  6539 PWs)   bands (ev):

   -19.6855 -19.6855 -19.3677 -19.3677 -18.7752 -18.7752 -18.7271 -18.7271
    -1.6594  -1.6594  -1.6125  -1.6125  -0.7484  -0.7484   0.1096   0.1096
     5.4631   5.4631   5.8051   5.8051   7.1293   7.1293   9.0568   9.0568
     9.3359   9.3359   9.6182   9.6182   9.8177   9.8177  10.5580  10.5580
    20.5892  20.5892  21.1092  21.1092  21.6521  21.6521  22.4598  22.4598
    22.7211  22.7211  22.7782  22.7782  23.0657  23.0657  23.4761  23.4761
    23.4929  23.4929  23.5074  23.5074  23.6278  23.6278  24.0783  24.0783
    24.6483  24.6483  24.7164  24.7164  24.8516  24.8516  24.8534  24.8534
    24.9441  24.9441  24.9894  24.9894  25.0852  25.0852  25.1718  25.1718
    25.2521  25.2521

     occupation numbers 
     1.0000   1.0000   1.0000   1.0000   1.0000   1.0000   1.0000   1.0000
     1.0000   1.0000   1.0000   1.0000   1.0000   1.0000   1.0000   1.0000
     1.0000   1.0000   1.0000   1.0000   1.0000   1.0000   1.0000   1.0000
     1.0000   1.0000   1.0000   1.0000   1.0000   1.0000   1.0000   1.0000
     1.0000   1.0000   1.0000   1.0000   1.0000   1.0000   1.0000   1.0000
     1.0000   1.0000   1.0000   1.0000   1.0000   1.0000   1.0000   1.0000
     1.0000   1.0000   1.0000   1.0000   1.0000   1.0000   0.7485   0.7485
    -0.0000  -0.0000  -0.0000  -0.0000  -0.0000  -0.0000  -0.0000  -0.0000
    -0.0000  -0.0000  -0.0000  -0.0000  -0.0000  -0.0000  -0.0000  -0.0000
    -0.0000  -0.0000

          k = 0.0000 0.1216 0.1440 (  6523 PWs)   bands (ev):

   -19.5626 -19.5626 -19.2779 -19.2779 -18.9202 -18.9202 -18.8252 -18.8252
    -1.5295  -1.5295  -1.3749  -1.3749  -0.9131  -0.9131  -0.1260  -0.1260
     5.7733   5.7733   6.2303   6.2303   6.9626   6.9626   8.8369   8.8369
     9.0894   9.0894   9.6708   9.6708   9.8677   9.8677  10.3788  10.3788
    21.0088  21.0088  21.2145  21.2145  21.5919  21.5919  21.6323  21.6323
    22.2205  22.2205  22.5993  22.5993  22.7673  22.7673  23.0878  23.0878
    23.3433  23.3433  23.8728  23.8728  24.1171  24.1171  24.2489  24.2489
    24.5789  24.5789  24.6875  24.6875  24.7501  24.7501  24.8017  24.8017
    24.8617  24.8617  24.9679  24.9679  24.9742  24.9742  25.1733  25.1733
    25.1853  25.1854

     occupation numbers 
     1.0000   1.0000   1.0000   1.0000   1.0000   1.0000   1.0000   1.0000
     1.0000   1.0000   1.0000   1.0000   1.0000   1.0000   1.0000   1.0000
     1.0000   1.0000   1.0000   1.0000   1.0000   1.0000   1.0000   1.0000
     1.0000   1.0000   1.0000   1.0000   1.0000   1.0000   1.0000   1.0000
     1.0000   1.0000   1.0000   1.0000   1.0000   1.0000   1.0000   1.0000
     1.0000   1.0000   1.0000   1.0000   1.0000   1.0000   1.0000   1.0000
     1.0000   1.0000   1.0000   1.0000  -0.0333  -0.0333  -0.0000  -0.0000
    -0.0000  -0.0000  -0.0000  -0.0000  -0.0000  -0.0000  -0.0000  -0.0000
    -0.0000  -0.0000  -0.0000  -0.0000  -0.0000  -0.0000  -0.0000  -0.0000
    -0.0000  -0.0000

          k = 0.0000 0.1216-0.2880 (  6530 PWs)   bands (ev):

   -19.2524 -19.2524 -19.2524 -19.2524 -19.0557 -19.0557 -19.0557 -19.0557
    -1.2621  -1.2621  -1.2621  -1.2621  -0.7258  -0.7258  -0.7258  -0.7258
     6.4272   6.4272   6.4272   6.4272   7.4006   7.4006   7.4006   7.4006
     9.6231   9.6231   9.6231   9.6231   9.9697   9.9697   9.9697   9.9697
    20.9739  20.9739  20.9739  20.9739  21.7502  21.7502  21.7502  21.7502
    22.1558  22.1558  22.1558  22.1558  22.6085  22.6085  22.6085  22.6085
    23.4737  23.4737  23.4737  23.4737  24.4424  24.4424  24.4424  24.4424
    24.4945  24.4945  24.4945  24.4945  24.8166  24.8166  24.8166  24.8166
    24.8574  24.8574  24.8574  24.8574  24.9938  24.9938  24.9938  24.9938
    25.3680  25.3680

     occupation numbers 
     1.0000   1.0000   1.0000   1.0000   1.0000   1.0000   1.0000   1.0000
     1.0000   1.0000   1.0000   1.0000   1.0000   1.0000   1.0000   1.0000
     1.0000   1.0000   1.0000   1.0000   1.0000   1.0000   1.0000   1.0000
     1.0000   1.0000   1.0000   1.0000   1.0000   1.0000   1.0000   1.0000
     1.0000   1.0000   1.0000   1.0000   1.0000   1.0000   1.0000   1.0000
     1.0000   1.0000   1.0000   1.0000   1.0000   1.0000   1.0000   1.0000
     1.0000   1.0000   1.0000   1.0000  -0.0000  -0.0000  -0.0000  -0.0000
    -0.0000  -0.0000  -0.0000  -0.0000  -0.0000  -0.0000  -0.0000  -0.0000
    -0.0000  -0.0000  -0.0000  -0.0000  -0.0000  -0.0000  -0.0000  -0.0000
    -0.0000  -0.0000

          k = 0.0000-0.2431 0.0000 (  6508 PWs)   bands (ev):

   -19.5358 -19.5358 -19.5358 -19.5358 -18.7440 -18.7440 -18.7440 -18.7440
    -1.6420  -1.6420  -1.6420  -1.6420  -0.2931  -0.2931  -0.2931  -0.2931
     5.5505   5.5505   5.5505   5.5505   8.1710   8.1710   8.1711   8.1711
     9.3062   9.3062   9.3062   9.3062  10.1423  10.1423  10.1423  10.1423
    21.4351  21.4351  21.4351  21.4351  22.4652  22.4652  22.4652  22.4652
    22.8413  22.8413  22.8413  22.8413  23.1878  23.1878  23.1878  23.1878
    23.3353  23.3353  23.3353  23.3353  23.9841  23.9841  23.9841  23.9841
    24.7757  24.7757  24.7757  24.7757  24.8643  24.8643  24.8643  24.8643
    24.8989  24.8989  24.8989  24.8989  25.1141  25.1141  25.1142  25.1144
    25.2373  25.2373

     occupation numbers 
     1.0000   1.0000   1.0000   1.0000   1.0000   1.0000   1.0000   1.0000
     1.0000   1.0000   1.0000   1.0000   1.0000   1.0000   1.0000   1.0000
     1.0000   1.0000   1.0000   1.0000   1.0000   1.0000   1.0000   1.0000
     1.0000   1.0000   1.0000   1.0000   1.0000   1.0000   1.0000   1.0000
     1.0000   1.0000   1.0000   1.0000   1.0000   1.0000   1.0000   1.0000
     1.0000   1.0000   1.0000   1.0000   1.0000   1.0000   1.0000   1.0000
     1.0000   1.0000   1.0000   1.0000   1.0000   1.0000   1.0000   1.0000
    -0.0000  -0.0000  -0.0000  -0.0000  -0.0000  -0.0000  -0.0000  -0.0000
    -0.0000  -0.0000  -0.0000  -0.0000  -0.0000  -0.0000  -0.0000  -0.0000
    -0.0000  -0.0000

          k = 0.0000-0.2431 0.1440 (  6514 PWs)   bands (ev):

   -19.4273 -19.4273 -19.4273 -19.4273 -18.8680 -18.8680 -18.8680 -18.8680
    -1.4516  -1.4516  -1.4516  -1.4516  -0.4984  -0.4984  -0.4984  -0.4984
     5.9414   5.9414   5.9414   5.9414   7.8279   7.8279   7.8279   7.8279
     9.2543   9.2543   9.2543   9.2543  10.1936  10.1936  10.1936  10.1936
    21.2218  21.2218  21.2218  21.2218  21.9748  21.9748  21.9748  21.9748
    22.5731  22.5731  22.5731  22.5731  23.2473  23.2473  23.2473  23.2473
    23.7817  23.7817  23.7817  23.7817  24.2106  24.2106  24.2106  24.2106
    24.3941  24.3941  24.3941  24.3941  24.7942  24.7942  24.7942  24.7942
    24.8986  24.8986  24.8986  24.8986  25.1107  25.1107  25.1107  25.1107
    25.3766  25.3766

     occupation numbers 
     1.0000   1.0000   1.0000   1.0000   1.0000   1.0000   1.0000   1.0000
     1.0000   1.0000   1.0000   1.0000   1.0000   1.0000   1.0000   1.0000
     1.0000   1.0000   1.0000   1.0000   1.0000   1.0000   1.0000   1.0000
     1.0000   1.0000   1.0000   1.0000   1.0000   1.0000   1.0000   1.0000
     1.0000   1.0000   1.0000   1.0000   1.0000   1.0000   1.0000   1.0000
     1.0000   1.0000   1.0000   1.0000   1.0000   1.0000   1.0000   1.0000
     1.0000   1.0000   1.0000   1.0000  -0.0000  -0.0000  -0.0000  -0.0000
    -0.0000  -0.0000  -0.0000  -0.0000  -0.0000  -0.0000  -0.0000  -0.0000
    -0.0000  -0.0000  -0.0000  -0.0000  -0.0000  -0.0000  -0.0000  -0.0000
    -0.0000  -0.0000

          k = 0.0000-0.2431-0.2880 (  6552 PWs)   bands (ev):

   -19.1553 -19.1553 -19.1553 -19.1553 -19.1553 -19.1553 -19.1553 -19.1553
    -0.9829  -0.9829  -0.9829  -0.9829  -0.9829  -0.9829  -0.9829  -0.9829
     6.8835   6.8835   6.8835   6.8835   6.8835   6.8835   6.8835   6.8835
     9.7272   9.7272   9.7272   9.7272   9.7272   9.7272   9.7272   9.7272
    21.6299  21.6299  21.6299  21.6299  21.6299  21.6299  21.6299  21.6299
    22.6922  22.6922  22.6922  22.6922  22.6922  22.6922  22.6922  22.6922
    23.7636  23.7636  23.7636  23.7636  23.7636  23.7636  23.7636  23.7636
    24.6475  24.6475  24.6475  24.6475  24.6475  24.6475  24.6475  24.6475
    24.9538  24.9538  24.9538  24.9538  24.9538  24.9538  24.9538  24.9538
    25.4854  25.4854

     occupation numbers 
     1.0000   1.0000   1.0000   1.0000   1.0000   1.0000   1.0000   1.0000
     1.0000   1.0000   1.0000   1.0000   1.0000   1.0000   1.0000   1.0000
     1.0000   1.0000   1.0000   1.0000   1.0000   1.0000   1.0000   1.0000
     1.0000   1.0000   1.0000   1.0000   1.0000   1.0000   1.0000   1.0000
     1.0000   1.0000   1.0000   1.0000   1.0000   1.0000   1.0000   1.0000
     1.0000   1.0000   1.0000   1.0000   1.0000   1.0000   1.0000   1.0000
     1.0000   1.0000   1.0000   1.0000   1.0000   1.0000   1.0000   1.0000
    -0.0000  -0.0000  -0.0000  -0.0000  -0.0000  -0.0000  -0.0000  -0.0000
    -0.0000  -0.0000  -0.0000  -0.0000  -0.0000  -0.0000  -0.0000  -0.0000
    -0.0000  -0.0000

          k = 0.2500 0.0000 0.0000 (  6521 PWs)   bands (ev):

   -19.4222 -19.4222 -19.0846 -19.0846 -18.5228 -18.5228 -18.4759 -18.4759
    -1.7724  -1.7724  -1.7297  -1.7297  -1.2011  -1.2011  -0.4302  -0.4302
     5.7666   5.7666   5.8709   5.8709   6.3052   6.3052   7.1991   7.1991
     7.9845   7.9845   8.1727   8.1727   8.4162   8.4162  10.3755  10.3755
    21.1057  21.1057  21.6150  21.6150  21.7203  21.7203  22.0294  22.0294
    22.5337  22.5337  22.6587  22.6587  22.8654  22.8654  23.3225  23.3225
    23.5107  23.5107  23.7637  23.7637  23.9303  23.9303  24.1930  24.1930
    24.3584  24.3584  24.5517  24.5517  24.5649  24.5649  24.6562  24.6562
    24.7914  24.7914  24.8212  24.8212  25.0722  25.0722  25.0795  25.0795
    25.3740  25.3740

     occupation numbers 
     1.0000   1.0000   1.0000   1.0000   1.0000   1.0000   1.0000   1.0000
     1.0000   1.0000   1.0000   1.0000   1.0000   1.0000   1.0000   1.0000
     1.0000   1.0000   1.0000   1.0000   1.0000   1.0000   1.0000   1.0000
     1.0000   1.0000   1.0000   1.0000   1.0000   1.0000   1.0000   1.0000
     1.0000   1.0000   1.0000   1.0000   1.0000   1.0000   1.0000   1.0000
     1.0000   1.0000   1.0000   1.0000   1.0000   1.0000   1.0000   1.0000
     1.0000   1.0000   1.0000   1.0000   1.0000   1.0000  -0.0000  -0.0000
    -0.0000  -0.0000  -0.0000  -0.0000  -0.0000  -0.0000  -0.0000  -0.0000
    -0.0000  -0.0000  -0.0000  -0.0000  -0.0000  -0.0000  -0.0000  -0.0000
    -0.0000  -0.0000

          k = 0.2500 0.0000 0.1440 (  6533 PWs)   bands (ev):

   -19.3007 -19.3007 -18.9989 -18.9989 -18.6659 -18.6659 -18.5686 -18.5686
    -1.6809  -1.6809  -1.5375  -1.5375  -1.2958  -1.2958  -0.5898  -0.5898
     5.6601   5.6601   6.1160   6.1160   6.4704   6.4704   7.3140   7.3140
     7.7381   7.7381   8.2931   8.2931   8.7097   8.7097   9.7227   9.7227
    21.6270  21.6270  21.7257  21.7257  21.7729  21.7729  21.9322  21.9322
    22.1681  22.1681  22.4421  22.4421  23.0511  23.0511  23.2567  23.2567
    23.2735  23.2735  23.8318  23.8318  23.8881  23.8881  23.9954  23.9954
    24.2709  24.2709  24.4187  24.4187  24.4513  24.4513  24.5546  24.5546
    24.7730  24.7730  24.9878  24.9878  24.9943  24.9943  25.1976  25.1976
    25.2354  25.2354

     occupation numbers 
     1.0000   1.0000   1.0000   1.0000   1.0000   1.0000   1.0000   1.0000
     1.0000   1.0000   1.0000   1.0000   1.0000   1.0000   1.0000   1.0000
     1.0000   1.0000   1.0000   1.0000   1.0000   1.0000   1.0000   1.0000
     1.0000   1.0000   1.0000   1.0000   1.0000   1.0000   1.0000   1.0000
     1.0000   1.0000   1.0000   1.0000   1.0000   1.0000   1.0000   1.0000
     1.0000   1.0000   1.0000   1.0000   1.0000   1.0000   1.0000   1.0000
     1.0000   1.0000   1.0000   1.0000   1.0000   1.0000   1.0000   1.0000
    -0.0000  -0.0000  -0.0000  -0.0000  -0.0000  -0.0000  -0.0000  -0.0000
    -0.0000  -0.0000  -0.0000  -0.0000  -0.0000  -0.0000  -0.0000  -0.0000
    -0.0000  -0.0000

          k = 0.2500 0.0000-0.2880 (  6520 PWs)   bands (ev):

   -18.9944 -18.9944 -18.9936 -18.9936 -18.7876 -18.7876 -18.7870 -18.7870
    -1.5302  -1.5302  -1.4933  -1.4933  -1.0317  -1.0317  -1.0199  -1.0199
     5.7219   5.7219   6.0722   6.0722   6.7982   6.7982   7.2407   7.2407
     8.1689   8.1689   8.4554   8.4554   8.5513   8.5513   8.9811   8.9811
    21.5213  21.5213  21.6539  21.6539  21.7757  21.7757  21.8679  21.8679
    22.2847  22.2847  22.2997  22.2997  22.8490  22.8490  23.1656  23.1656
    23.6127  23.6127  23.7780  23.7780  24.0698  24.0698  24.1594  24.1594
    24.1810  24.1810  24.2426  24.2426  24.4201  24.4201  24.5368  24.5368
    24.6962  24.6962  24.8703  24.8703  24.9066  24.9066  25.0917  25.0917
    25.5409  25.5410

     occupation numbers 
     1.0000   1.0000   1.0000   1.0000   1.0000   1.0000   1.0000   1.0000
     1.0000   1.0000   1.0000   1.0000   1.0000   1.0000   1.0000   1.0000
     1.0000   1.0000   1.0000   1.0000   1.0000   1.0000   1.0000   1.0000
     1.0000   1.0000   1.0000   1.0000   1.0000   1.0000   1.0000   1.0000
     1.0000   1.0000   1.0000   1.0000   1.0000   1.0000   1.0000   1.0000
     1.0000   1.0000   1.0000   1.0000   1.0000   1.0000   1.0000   1.0000
     1.0000   1.0000   1.0000   1.0000   0.9302   0.9302  -0.0005  -0.0005
    -0.0000  -0.0000  -0.0000  -0.0000  -0.0000  -0.0000  -0.0000  -0.0000
    -0.0000  -0.0000  -0.0000  -0.0000  -0.0000  -0.0000  -0.0000  -0.0000
    -0.0000  -0.0000

          k = 0.2500 0.1216 0.0000 (  6514 PWs)   bands (ev):

   -19.3774 -19.3774 -19.1400 -19.1400 -18.5123 -18.5123 -18.4777 -18.4777
    -1.7714  -1.7714  -1.7480  -1.7480  -1.0762  -1.0762  -0.5384  -0.5384
     5.7678   5.7678   5.8983   5.8983   6.4317   6.4317   7.2863   7.2863
     7.6448   7.6448   8.0420   8.0420   8.7915   8.7915  10.1436  10.1436
    21.2660  21.2660  21.4825  21.4825  21.6084  21.6084  21.9559  21.9559
    22.7140  22.7140  23.0891  23.0891  23.2042  23.2042  23.2326  23.2326
    23.4131  23.4131  23.5984  23.5984  23.9076  23.9076  23.9307  23.9307
    24.2828  24.2828  24.4893  24.4893  24.5658  24.5658  24.6796  24.6796
    24.7367  24.7367  24.8478  24.8478  24.9195  24.9195  25.1602  25.1602
    25.2262  25.2262

     occupation numbers 
     1.0000   1.0000   1.0000   1.0000   1.0000   1.0000   1.0000   1.0000
     1.0000   1.0000   1.0000   1.0000   1.0000   1.0000   1.0000   1.0000
     1.0000   1.0000   1.0000   1.0000   1.0000   1.0000   1.0000   1.0000
     1.0000   1.0000   1.0000   1.0000   1.0000   1.0000   1.0000   1.0000
     1.0000   1.0000   1.0000   1.0000   1.0000   1.0000   1.0000   1.0000
     1.0000   1.0000   1.0000   1.0000   1.0000   1.0000   1.0000   1.0000
     1.0000   1.0000   1.0000   1.0000   1.0000   1.0000   1.0000   1.0000
    -0.0000  -0.0000  -0.0000  -0.0000  -0.0000  -0.0000  -0.0000  -0.0000
    -0.0000  -0.0000  -0.0000  -0.0000  -0.0000  -0.0000  -0.0000  -0.0000
    -0.0000  -0.0000

          k = 0.2500 0.1216 0.1440 (  6519 PWs)   bands (ev):

   -19.2600 -19.2600 -19.0476 -19.0476 -18.6492 -18.6492 -18.5795 -18.5795
    -1.6678  -1.6678  -1.5617  -1.5617  -1.1841  -1.1841  -0.6898  -0.6898
     5.7847   5.7847   6.0809   6.0809   6.6226   6.6226   7.3304   7.3304
     7.5071   7.5071   8.0717   8.0717   8.9296   8.9296   9.6404   9.6404
    21.3171  21.3171  21.5016  21.5016  21.6055  21.6055  21.9065  21.9065
    22.5468  22.5468  23.0590  23.0590  23.1897  23.1897  23.3347  23.3347
    23.4431  23.4431  23.6461  23.6461  23.8824  23.8824  23.9714  23.9714
    24.0991  24.0991  24.3798  24.3798  24.4320  24.4320  24.6488  24.6488
    24.6538  24.6538  24.9227  24.9227  24.9972  24.9972  25.1565  25.1565
    25.1661  25.1661

     occupation numbers 
     1.0000   1.0000   1.0000   1.0000   1.0000   1.0000   1.0000   1.0000
     1.0000   1.0000   1.0000   1.0000   1.0000   1.0000   1.0000   1.0000
     1.0000   1.0000   1.0000   1.0000   1.0000   1.0000   1.0000   1.0000
     1.0000   1.0000   1.0000   1.0000   1.0000   1.0000   1.0000   1.0000
     1.0000   1.0000   1.0000   1.0000   1.0000   1.0000   1.0000   1.0000
     1.0000   1.0000   1.0000   1.0000   1.0000   1.0000   1.0000   1.0000
     1.0000   1.0000   1.0000   1.0000   1.0000   1.0000   1.0000   1.0000
     0.1567   0.1567  -0.0000  -0.0000  -0.0000  -0.0000  -0.0000  -0.0000
    -0.0000  -0.0000  -0.0000  -0.0000  -0.0000  -0.0000  -0.0000  -0.0000
    -0.0000  -0.0000

          k = 0.2500 0.1216-0.2880 (  6524 PWs)   bands (ev):

   -18.9647 -18.9647 -18.9639 -18.9639 -18.8185 -18.8185 -18.8179 -18.8179
    -1.4556  -1.4556  -1.4253  -1.4253  -1.0989  -1.0989  -1.0947  -1.0947
     5.9173   5.9173   6.2030   6.2030   6.7129   6.7129   6.9688   6.9688
     8.2400   8.2400   8.5050   8.5050   8.5467   8.5467   8.8199   8.8199
    21.4858  21.4858  21.4917  21.4917  21.7501  21.7501  21.8957  21.8957
    22.6471  22.6471  22.7854  22.7854  22.9032  22.9032  22.9675  22.9675
    23.7537  23.7537  23.7761  23.7761  23.9852  23.9852  23.9876  23.9876
    24.0535  24.0535  24.1168  24.1168  24.3933  24.3933  24.4627  24.4627
    24.8308  24.8308  24.8574  24.8574  24.9239  24.9239  25.0264  25.0264
    25.5086  25.5086

     occupation numbers 
     1.0000   1.0000   1.0000   1.0000   1.0000   1.0000   1.0000   1.0000
     1.0000   1.0000   1.0000   1.0000   1.0000   1.0000   1.0000   1.0000
     1.0000   1.0000   1.0000   1.0000   1.0000   1.0000   1.0000   1.0000
     1.0000   1.0000   1.0000   1.0000   1.0000   1.0000   1.0000   1.0000
     1.0000   1.0000   1.0000   1.0000   1.0000   1.0000   1.0000   1.0000
     1.0000   1.0000   1.0000   1.0000   1.0000   1.0000   1.0000   1.0000
     1.0000   1.0000   1.0000   1.0000   1.0000   1.0000   1.0000   1.0000
     1.0355   1.0355  -0.0329  -0.0329  -0.0000  -0.0000  -0.0000  -0.0000
    -0.0000  -0.0000  -0.0000  -0.0000  -0.0000  -0.0000  -0.0000  -0.0000
    -0.0000  -0.0000

          k = 0.2500-0.2431 0.0000 (  6498 PWs)   bands (ev):

   -19.2638 -19.2638 -19.2638 -19.2638 -18.4909 -18.4909 -18.4909 -18.4909
    -1.7662  -1.7662  -1.7662  -1.7662  -0.8011  -0.8011  -0.8011  -0.8011
     5.8166   5.8166   5.8166   5.8166   6.9735   6.9735   6.9736   6.9736
     7.6454   7.6454   7.6454   7.6454   9.5237   9.5237   9.5237   9.5237
    21.5682  21.5682  21.5682  21.5682  21.9955  21.9955  21.9955  21.9955
    22.4164  22.4164  22.4164  22.4164  22.9574  22.9574  22.9574  22.9574
    23.6693  23.6693  23.6693  23.6693  24.1151  24.1151  24.1151  24.1151
    24.3256  24.3256  24.3256  24.3256  24.5987  24.5987  24.5987  24.5987
    24.8663  24.8663  24.8663  24.8663  25.0625  25.0625  25.0625  25.0625
    25.2574  25.2574

     occupation numbers 
     1.0000   1.0000   1.0000   1.0000   1.0000   1.0000   1.0000   1.0000
     1.0000   1.0000   1.0000   1.0000   1.0000   1.0000   1.0000   1.0000
     1.0000   1.0000   1.0000   1.0000   1.0000   1.0000   1.0000   1.0000
     1.0000   1.0000   1.0000   1.0000   1.0000   1.0000   1.0000   1.0000
     1.0000   1.0000   1.0000   1.0000   1.0000   1.0000   1.0000   1.0000
     1.0000   1.0000   1.0000   1.0000   1.0000   1.0000   1.0000   1.0000
     1.0000   1.0000   1.0000   1.0000  -0.0290  -0.0290  -0.0290  -0.0290
    -0.0000  -0.0000  -0.0000  -0.0000  -0.0000  -0.0000  -0.0000  -0.0000
    -0.0000  -0.0000  -0.0000  -0.0000  -0.0000  -0.0000  -0.0000  -0.0000
    -0.0000  -0.0000

          k = 0.2500-0.2431 0.1440 (  6526 PWs)   bands (ev):

   -19.1576 -19.1576 -19.1576 -19.1576 -18.6117 -18.6117 -18.6117 -18.6117
    -1.6189  -1.6189  -1.6189  -1.6189  -0.9325  -0.9325  -0.9325  -0.9325
     5.9806   5.9806   5.9806   5.9806   7.0193   7.0193   7.0193   7.0193
     7.6094   7.6094   7.6094   7.6094   9.3443   9.3443   9.3443   9.3443
    21.3092  21.3092  21.3092  21.3092  22.0270  22.0270  22.0270  22.0270
    22.5136  22.5136  22.5136  22.5136  22.9558  22.9558  22.9558  22.9558
    23.8684  23.8684  23.8684  23.8684  24.0691  24.0691  24.0691  24.0691
    24.1978  24.1978  24.1978  24.1978  24.6884  24.6884  24.6884  24.6884
    24.8936  24.8936  24.8936  24.8936  25.0401  25.0401  25.0402  25.0404
    25.1471  25.1471

     occupation numbers 
     1.0000   1.0000   1.0000   1.0000   1.0000   1.0000   1.0000   1.0000
     1.0000   1.0000   1.0000   1.0000   1.0000   1.0000   1.0000   1.0000
     1.0000   1.0000   1.0000   1.0000   1.0000   1.0000   1.0000   1.0000
     1.0000   1.0000   1.0000   1.0000   1.0000   1.0000   1.0000   1.0000
     1.0000   1.0000   1.0000   1.0000   1.0000   1.0000   1.0000   1.0000
     1.0000   1.0000   1.0000   1.0000   1.0000   1.0000   1.0000   1.0000
     1.0000   1.0000   1.0000   1.0000   0.9404   0.9404   0.9404   0.9404
    -0.0000  -0.0000  -0.0000  -0.0000  -0.0000  -0.0000  -0.0000  -0.0000
    -0.0000  -0.0000  -0.0000  -0.0000  -0.0000  -0.0000  -0.0000  -0.0000
    -0.0000  -0.0000

          k = 0.2500-0.2431-0.2880 (  6508 PWs)   bands (ev):

   -18.8923 -18.8923 -18.8923 -18.8923 -18.8916 -18.8916 -18.8916 -18.8916
    -1.2753  -1.2753  -1.2753  -1.2753  -1.2618  -1.2618  -1.2618  -1.2618
     6.4126   6.4126   6.4126   6.4126   6.4825   6.4825   6.4825   6.4825
     8.4824   8.4824   8.4824   8.4824   8.5398   8.5398   8.5398   8.5398
    21.8306  21.8306  21.8306  21.8306  21.9136  21.9136  21.9136  21.9136
    22.4400  22.4400  22.4400  22.4400  22.6140  22.6140  22.6140  22.6140
    23.8479  23.8479  23.8479  23.8479  23.9285  23.9285  23.9285  23.9285
    24.4355  24.4355  24.4355  24.4355  24.5057  24.5057  24.5057  24.5057
    24.7692  24.7692  24.7692  24.7692  24.8486  24.8486  24.8486  24.8486
    25.4555  25.4555

     occupation numbers 
     1.0000   1.0000   1.0000   1.0000   1.0000   1.0000   1.0000   1.0000
     1.0000   1.0000   1.0000   1.0000   1.0000   1.0000   1.0000   1.0000
     1.0000   1.0000   1.0000   1.0000   1.0000   1.0000   1.0000   1.0000
     1.0000   1.0000   1.0000   1.0000   1.0000   1.0000   1.0000   1.0000
     1.0000   1.0000   1.0000   1.0000   1.0000   1.0000   1.0000   1.0000
     1.0000   1.0000   1.0000   1.0000   1.0000   1.0000   1.0000   1.0000
     1.0000   1.0000   1.0000   1.0000   1.0000   1.0000   1.0000   1.0000
    -0.0000  -0.0000  -0.0000  -0.0000  -0.0000  -0.0000  -0.0000  -0.0000
    -0.0000  -0.0000  -0.0000  -0.0000  -0.0000  -0.0000  -0.0000  -0.0000
    -0.0000  -0.0000

          k =-0.5000 0.0000 0.0000 (  6500 PWs)   bands (ev):

   -18.9708 -18.9708 -18.9708 -18.9708 -18.2203 -18.2203 -18.2203 -18.2203
    -2.0176  -2.0176  -2.0176  -2.0176  -1.4595  -1.4595  -1.4595  -1.4595
     5.4383   5.4383   5.4383   5.4383   6.1444   6.1444   6.1444   6.1444
     7.0997   7.0997   7.0997   7.0997   9.5386   9.5386   9.5387   9.5387
    19.9381  19.9381  19.9381  19.9381  22.1578  22.1578  22.1578  22.1578
    22.6129  22.6129  22.6129  22.6129  22.9242  22.9242  22.9242  22.9242
    23.1387  23.1387  23.1387  23.1387  23.4916  23.4916  23.4916  23.4916
    24.2622  24.2622  24.2622  24.2622  24.3809  24.3809  24.3809  24.3809
    24.6625  24.6625  24.6625  24.6625  25.2629  25.2629  25.2629  25.2629
    25.4190  25.4190

     occupation numbers 
     1.0000   1.0000   1.0000   1.0000   1.0000   1.0000   1.0000   1.0000
     1.0000   1.0000   1.0000   1.0000   1.0000   1.0000   1.0000   1.0000
     1.0000   1.0000   1.0000   1.0000   1.0000   1.0000   1.0000   1.0000
     1.0000   1.0000   1.0000   1.0000   1.0000   1.0000   1.0000   1.0000
     1.0000   1.0000   1.0000   1.0000   1.0000   1.0000   1.0000   1.0000
     1.0000   1.0000   1.0000   1.0000   1.0000   1.0000   1.0000   1.0000
     1.0000   1.0000   1.0000   1.0000   1.0000   1.0000   1.0000   1.0000
    -0.0000  -0.0000  -0.0000  -0.0000  -0.0000  -0.0000  -0.0000  -0.0000
    -0.0000  -0.0000  -0.0000  -0.0000  -0.0000  -0.0000  -0.0000  -0.0000
    -0.0000  -0.0000

          k =-0.5000 0.0000 0.1440 (  6514 PWs)   bands (ev):

   -18.8675 -18.8675 -18.8675 -18.8675 -18.3373 -18.3373 -18.3373 -18.3373
    -1.9206  -1.9206  -1.9206  -1.9206  -1.5222  -1.5222  -1.5222  -1.5222
     5.4161   5.4161   5.4161   5.4161   6.0300   6.0300   6.0300   6.0300
     7.4486   7.4486   7.4486   7.4486   9.3008   9.3008   9.3008   9.3008
    20.4691  20.4691  20.4691  20.4691  21.8381  21.8381  21.8381  21.8381
    22.6662  22.6662  22.6662  22.6662  22.7940  22.7940  22.7940  22.7940
    23.1116  23.1116  23.1116  23.1116  23.2766  23.2766  23.2766  23.2766
    24.0575  24.0575  24.0575  24.0575  24.3299  24.3299  24.3299  24.3299
    24.9495  24.9495  24.9495  24.9495  25.3627  25.3627  25.3627  25.3627
    25.4498  25.4498

     occupation numbers 
     1.0000   1.0000   1.0000   1.0000   1.0000   1.0000   1.0000   1.0000
     1.0000   1.0000   1.0000   1.0000   1.0000   1.0000   1.0000   1.0000
     1.0000   1.0000   1.0000   1.0000   1.0000   1.0000   1.0000   1.0000
     1.0000   1.0000   1.0000   1.0000   1.0000   1.0000   1.0000   1.0000
     1.0000   1.0000   1.0000   1.0000   1.0000   1.0000   1.0000   1.0000
     1.0000   1.0000   1.0000   1.0000   1.0000   1.0000   1.0000   1.0000
     1.0000   1.0000   1.0000   1.0000   1.0000   1.0000   1.0000   1.0000
     1.0313   1.0313   1.0313   1.0313  -0.0000  -0.0000  -0.0000  -0.0000
    -0.0000  -0.0000  -0.0000  -0.0000  -0.0000  -0.0000  -0.0000  -0.0000
    -0.0000  -0.0000

          k =-0.5000 0.0000-0.2880 (  6484 PWs)   bands (ev):

   -18.6092 -18.6092 -18.6092 -18.6092 -18.6091 -18.6091 -18.6091 -18.6091
    -1.7204  -1.7204  -1.7204  -1.7204  -1.6884  -1.6884  -1.6884  -1.6884
     5.4528   5.4528   5.4528   5.4528   5.8214   5.8214   5.8214   5.8214
     8.2166   8.2166   8.2166   8.2166   8.6654   8.6654   8.6654   8.6654
    21.1535  21.1535  21.1535  21.1535  21.5120  21.5120  21.5120  21.5120
    22.6160  22.6160  22.6160  22.6160  22.7818  22.7818  22.7818  22.7818
    23.3883  23.3883  23.3883  23.3883  23.4186  23.4186  23.4186  23.4186
    23.7265  23.7265  23.7265  23.7265  23.7477  23.7477  23.7477  23.7477
    25.3233  25.3233  25.3233  25.3233  25.3836  25.3836  25.3836  25.3836
    25.5567  25.5567

     occupation numbers 
     1.0000   1.0000   1.0000   1.0000   1.0000   1.0000   1.0000   1.0000
     1.0000   1.0000   1.0000   1.0000   1.0000   1.0000   1.0000   1.0000
     1.0000   1.0000   1.0000   1.0000   1.0000   1.0000   1.0000   1.0000
     1.0000   1.0000   1.0000   1.0000   1.0000   1.0000   1.0000   1.0000
     1.0000   1.0000   1.0000   1.0000   1.0000   1.0000   1.0000   1.0000
     1.0000   1.0000   1.0000   1.0000   1.0000   1.0000   1.0000   1.0000
     1.0000   1.0000   1.0000   1.0000   1.0000   1.0000   1.0000   1.0000
     1.0000   1.0000   1.0000   1.0000   1.0000   1.0000   1.0000   1.0000
    -0.0000  -0.0000  -0.0000  -0.0000  -0.0000  -0.0000  -0.0000  -0.0000
    -0.0000  -0.0000

          k =-0.5000 0.1216 0.0000 (  6492 PWs)   bands (ev):

   -18.9704 -18.9704 -18.9704 -18.9704 -18.2205 -18.2205 -18.2205 -18.2205
    -2.0163  -2.0163  -2.0163  -2.0163  -1.4814  -1.4814  -1.4814  -1.4814
     5.4611   5.4611   5.4611   5.4611   6.1339   6.1339   6.1339   6.1339
     7.1334   7.1334   7.1334   7.1334   9.6368   9.6368   9.6368   9.6368
    20.0010  20.0010  20.0010  20.0010  21.2160  21.2160  21.2160  21.2160
    21.7620  21.7620  21.7620  21.7620  23.0514  23.0514  23.0514  23.0514
    23.6182  23.6182  23.6182  23.6182  23.7134  23.7134  23.7134  23.7134
    23.9472  23.9472  23.9472  23.9472  24.5111  24.5111  24.5111  24.5111
    24.7512  24.7512  24.7512  24.7512  25.2930  25.2930  25.2931  25.2932
    25.4034  25.4034

     occupation numbers 
     1.0000   1.0000   1.0000   1.0000   1.0000   1.0000   1.0000   1.0000
     1.0000   1.0000   1.0000   1.0000   1.0000   1.0000   1.0000   1.0000
     1.0000   1.0000   1.0000   1.0000   1.0000   1.0000   1.0000   1.0000
     1.0000   1.0000   1.0000   1.0000   1.0000   1.0000   1.0000   1.0000
     1.0000   1.0000   1.0000   1.0000   1.0000   1.0000   1.0000   1.0000
     1.0000   1.0000   1.0000   1.0000   1.0000   1.0000   1.0000   1.0000
     1.0000   1.0000   1.0000   1.0000   1.0000   1.0000   1.0000   1.0000
     1.0000   1.0000   1.0000   1.0000  -0.0000  -0.0000  -0.0000  -0.0000
    -0.0000  -0.0000  -0.0000  -0.0000  -0.0000  -0.0000  -0.0000  -0.0000
    -0.0000  -0.0000

          k =-0.5000 0.1216 0.1440 (  6492 PWs)   bands (ev):

   -18.8671 -18.8671 -18.8671 -18.8671 -18.3374 -18.3374 -18.3374 -18.3374
    -1.9241  -1.9241  -1.9241  -1.9241  -1.5397  -1.5397  -1.5397  -1.5397
     5.4513   5.4513   5.4513   5.4513   6.0013   6.0013   6.0013   6.0013
     7.5075   7.5075   7.5075   7.5075   9.3784   9.3784   9.3784   9.3784
    20.1730  20.1730  20.1730  20.1730  21.2231  21.2231  21.2231  21.2231
    22.0617  22.0617  22.0617  22.0617  22.8050  22.8050  22.8050  22.8050
    23.3653  23.3653  23.3653  23.3653  23.7579  23.7579  23.7579  23.7579
    23.8876  23.8876  23.8876  23.8876  24.4932  24.4932  24.4932  24.4932
    24.9258  24.9258  24.9258  24.9258  25.3613  25.3613  25.3614  25.3614
    25.4694  25.4694

     occupation numbers 
     1.0000   1.0000   1.0000   1.0000   1.0000   1.0000   1.0000   1.0000
     1.0000   1.0000   1.0000   1.0000   1.0000   1.0000   1.0000   1.0000
     1.0000   1.0000   1.0000   1.0000   1.0000   1.0000   1.0000   1.0000
     1.0000   1.0000   1.0000   1.0000   1.0000   1.0000   1.0000   1.0000
     1.0000   1.0000   1.0000   1.0000   1.0000   1.0000   1.0000   1.0000
     1.0000   1.0000   1.0000   1.0000   1.0000   1.0000   1.0000   1.0000
     1.0000   1.0000   1.0000   1.0000   1.0000   1.0000   1.0000   1.0000
     1.0000   1.0000   1.0000   1.0000  -0.0000  -0.0000  -0.0000  -0.0000
    -0.0000  -0.0000  -0.0000  -0.0000  -0.0000  -0.0000  -0.0000  -0.0000
    -0.0000  -0.0000

          k =-0.5000 0.1216-0.2880 (  6508 PWs)   bands (ev):

   -18.6091 -18.6091 -18.6091 -18.6091 -18.6090 -18.6090 -18.6090 -18.6090
    -1.7266  -1.7266  -1.7266  -1.7266  -1.7042  -1.7042  -1.7042  -1.7042
     5.5175   5.5175   5.5175   5.5175   5.7752   5.7752   5.7752   5.7752
     8.3414   8.3414   8.3414   8.3414   8.6580   8.6580   8.6580   8.6580
    20.7535  20.7535  20.7535  20.7535  20.9709  20.9709  20.9709  20.9709
    22.4090  22.4090  22.4090  22.4090  22.5175  22.5175  22.5175  22.5175
    23.3417  23.3417  23.3417  23.3417  23.3566  23.3566  23.3566  23.3566
    24.1412  24.1412  24.1412  24.1412  24.1507  24.1507  24.1507  24.1507
    25.2457  25.2457  25.2457  25.2457  25.2590  25.2590  25.2590  25.2590
    25.6896  25.6938

     occupation numbers 
     1.0000   1.0000   1.0000   1.0000   1.0000   1.0000   1.0000   1.0000
     1.0000   1.0000   1.0000   1.0000   1.0000   1.0000   1.0000   1.0000
     1.0000   1.0000   1.0000   1.0000   1.0000   1.0000   1.0000   1.0000
     1.0000   1.0000   1.0000   1.0000   1.0000   1.0000   1.0000   1.0000
     1.0000   1.0000   1.0000   1.0000   1.0000   1.0000   1.0000   1.0000
     1.0000   1.0000   1.0000   1.0000   1.0000   1.0000   1.0000   1.0000
     1.0000   1.0000   1.0000   1.0000   1.0000   1.0000   1.0000   1.0000
    -0.0080  -0.0080  -0.0080  -0.0080  -0.0022  -0.0022  -0.0022  -0.0022
    -0.0000  -0.0000  -0.0000  -0.0000  -0.0000  -0.0000  -0.0000  -0.0000
    -0.0000  -0.0000

          k =-0.5000-0.2431 0.0000 (  6488 PWs)   bands (ev):

   -18.9700 -18.9700 -18.9700 -18.9700 -18.2206 -18.2206 -18.2206 -18.2206
    -2.0147  -2.0147  -2.0147  -2.0147  -1.5035  -1.5035  -1.5035  -1.5035
     5.4805   5.4805   5.4805   5.4805   6.1274   6.1274   6.1274   6.1274
     7.1682   7.1682   7.1682   7.1682   9.7361   9.7361   9.7361   9.7361
    20.0620  20.0620  20.0620  20.0620  20.8863  20.8863  20.8863  20.8863
    20.9056  20.9056  20.9056  20.9056  23.3318  23.3318  23.3318  23.3318
    23.4618  23.4618  23.4618  23.4618  23.7662  23.7662  23.7662  23.7662
    23.8214  23.8214  23.8214  23.8214  24.6556  24.6556  24.6556  24.6556
    24.7385  24.7385  24.7385  24.7385  25.3739  25.3739  25.3739  25.3739
    25.4078  25.4078

     occupation numbers 
     1.0000   1.0000   1.0000   1.0000   1.0000   1.0000   1.0000   1.0000
     1.0000   1.0000   1.0000   1.0000   1.0000   1.0000   1.0000   1.0000
     1.0000   1.0000   1.0000   1.0000   1.0000   1.0000   1.0000   1.0000
     1.0000   1.0000   1.0000   1.0000   1.0000   1.0000   1.0000   1.0000
     1.0000   1.0000   1.0000   1.0000   1.0000   1.0000   1.0000   1.0000
     1.0000   1.0000   1.0000   1.0000   1.0000   1.0000   1.0000   1.0000
     1.0000   1.0000   1.0000   1.0000   1.0000   1.0000   1.0000   1.0000
     1.0000   1.0000   1.0000   1.0000  -0.0000  -0.0000  -0.0000  -0.0000
    -0.0000  -0.0000  -0.0000  -0.0000  -0.0000  -0.0000  -0.0000  -0.0000
    -0.0000  -0.0000

          k =-0.5000-0.2431 0.1440 (  6504 PWs)   bands (ev):

   -18.8668 -18.8668 -18.8668 -18.8668 -18.3375 -18.3375 -18.3374 -18.3374
    -1.9275  -1.9275  -1.9275  -1.9275  -1.5572  -1.5572  -1.5572  -1.5572
     5.4860   5.4860   5.4860   5.4860   5.9748   5.9748   5.9748   5.9748
     7.5650   7.5650   7.5650   7.5650   9.4586   9.4586   9.4586   9.4586
    19.8689  19.8689  19.8689  19.8689  20.7201  20.7201  20.7201  20.7201
    21.7677  21.7677  21.7677  21.7677  23.1654  23.1654  23.1654  23.1654
    23.3537  23.3537  23.3537  23.3537  23.5318  23.5318  23.5318  23.5318
    24.0211  24.0211  24.0211  24.0211  24.6351  24.6351  24.6351  24.6351
    24.8494  24.8494  24.8494  24.8494  25.3585  25.3585  25.3585  25.3585
    25.5320  25.5320

     occupation numbers 
     1.0000   1.0000   1.0000   1.0000   1.0000   1.0000   1.0000   1.0000
     1.0000   1.0000   1.0000   1.0000   1.0000   1.0000   1.0000   1.0000
     1.0000   1.0000   1.0000   1.0000   1.0000   1.0000   1.0000   1.0000
     1.0000   1.0000   1.0000   1.0000   1.0000   1.0000   1.0000   1.0000
     1.0000   1.0000   1.0000   1.0000   1.0000   1.0000   1.0000   1.0000
     1.0000   1.0000   1.0000   1.0000   1.0000   1.0000   1.0000   1.0000
     1.0000   1.0000   1.0000   1.0000   1.0000   1.0000   1.0000   1.0000
     1.0017   1.0017   1.0017   1.0017  -0.0000  -0.0000  -0.0000  -0.0000
    -0.0000  -0.0000  -0.0000  -0.0000  -0.0000  -0.0000  -0.0000  -0.0000
    -0.0000  -0.0000

          k =-0.5000-0.2431-0.2880 (  6520 PWs)   bands (ev):

   -18.6089 -18.6089 -18.6089 -18.6089 -18.6089 -18.6089 -18.6089 -18.6089
    -1.7264  -1.7264  -1.7264  -1.7264  -1.7263  -1.7263  -1.7263  -1.7263
     5.6557   5.6557   5.6557   5.6557   5.6557   5.6557   5.6557   5.6557
     8.5596   8.5596   8.5596   8.5596   8.5596   8.5596   8.5596   8.5596
    20.4493  20.4493  20.4493  20.4493  20.4493  20.4493  20.4493  20.4493
    22.2810  22.2810  22.2810  22.2810  22.2810  22.2810  22.2810  22.2810
    23.4315  23.4315  23.4315  23.4315  23.4315  23.4315  23.4315  23.4315
    24.3462  24.3462  24.3462  24.3462  24.3462  24.3462  24.3462  24.3462
    25.1476  25.1476  25.1476  25.1476  25.1476  25.1476  25.1476  25.1476
    25.6956  25.6956

     occupation numbers 
     1.0000   1.0000   1.0000   1.0000   1.0000   1.0000   1.0000   1.0000
     1.0000   1.0000   1.0000   1.0000   1.0000   1.0000   1.0000   1.0000
     1.0000   1.0000   1.0000   1.0000   1.0000   1.0000   1.0000   1.0000
     1.0000   1.0000   1.0000   1.0000   1.0000   1.0000   1.0000   1.0000
     1.0000   1.0000   1.0000   1.0000   1.0000   1.0000   1.0000   1.0000
     1.0000   1.0000   1.0000   1.0000   1.0000   1.0000   1.0000   1.0000
     1.0000   1.0000   1.0000   1.0000   1.0000   1.0000   1.0000   1.0000
    -0.0000  -0.0000  -0.0000  -0.0000  -0.0000  -0.0000  -0.0000  -0.0000
    -0.0000  -0.0000  -0.0000  -0.0000  -0.0000  -0.0000  -0.0000  -0.0000
    -0.0000  -0.0000

          k = 0.0000 0.1216-0.1440 (  6523 PWs)   bands (ev):

   -19.5626 -19.5626 -19.2779 -19.2779 -18.9202 -18.9202 -18.8252 -18.8252
    -1.5295  -1.5295  -1.3749  -1.3749  -0.9131  -0.9131  -0.1260  -0.1260
     5.7733   5.7733   6.2303   6.2303   6.9626   6.9626   8.8369   8.8369
     9.0894   9.0894   9.6708   9.6708   9.8677   9.8677  10.3788  10.3788
    21.0088  21.0088  21.2145  21.2145  21.5919  21.5919  21.6323  21.6323
    22.2205  22.2205  22.5993  22.5993  22.7673  22.7673  23.0878  23.0878
    23.3433  23.3433  23.8728  23.8728  24.1171  24.1171  24.2489  24.2489
    24.5789  24.5789  24.6875  24.6875  24.7501  24.7501  24.8017  24.8017
    24.8617  24.8617  24.9679  24.9679  24.9742  24.9742  25.1733  25.1733
    25.1854  25.1854

     occupation numbers 
     1.0000   1.0000   1.0000   1.0000   1.0000   1.0000   1.0000   1.0000
     1.0000   1.0000   1.0000   1.0000   1.0000   1.0000   1.0000   1.0000
     1.0000   1.0000   1.0000   1.0000   1.0000   1.0000   1.0000   1.0000
     1.0000   1.0000   1.0000   1.0000   1.0000   1.0000   1.0000   1.0000
     1.0000   1.0000   1.0000   1.0000   1.0000   1.0000   1.0000   1.0000
     1.0000   1.0000   1.0000   1.0000   1.0000   1.0000   1.0000   1.0000
     1.0000   1.0000   1.0000   1.0000  -0.0333  -0.0333  -0.0000  -0.0000
    -0.0000  -0.0000  -0.0000  -0.0000  -0.0000  -0.0000  -0.0000  -0.0000
    -0.0000  -0.0000  -0.0000  -0.0000  -0.0000  -0.0000  -0.0000  -0.0000
    -0.0000  -0.0000

          k =-0.2500 0.1216-0.1440 (  6519 PWs)   bands (ev):

   -19.2600 -19.2600 -19.0476 -19.0476 -18.6492 -18.6492 -18.5795 -18.5795
    -1.6678  -1.6678  -1.5617  -1.5617  -1.1841  -1.1841  -0.6898  -0.6898
     5.7847   5.7847   6.0809   6.0809   6.6226   6.6226   7.3304   7.3304
     7.5071   7.5071   8.0717   8.0717   8.9296   8.9296   9.6404   9.6404
    21.3171  21.3171  21.5016  21.5016  21.6055  21.6055  21.9065  21.9065
    22.5468  22.5468  23.0590  23.0590  23.1897  23.1897  23.3347  23.3347
    23.4431  23.4431  23.6461  23.6461  23.8824  23.8824  23.9714  23.9714
    24.0991  24.0991  24.3798  24.3798  24.4320  24.4320  24.6488  24.6488
    24.6538  24.6538  24.9227  24.9227  24.9972  24.9972  25.1565  25.1565
    25.1661  25.1661

     occupation numbers 
     1.0000   1.0000   1.0000   1.0000   1.0000   1.0000   1.0000   1.0000
     1.0000   1.0000   1.0000   1.0000   1.0000   1.0000   1.0000   1.0000
     1.0000   1.0000   1.0000   1.0000   1.0000   1.0000   1.0000   1.0000
     1.0000   1.0000   1.0000   1.0000   1.0000   1.0000   1.0000   1.0000
     1.0000   1.0000   1.0000   1.0000   1.0000   1.0000   1.0000   1.0000
     1.0000   1.0000   1.0000   1.0000   1.0000   1.0000   1.0000   1.0000
     1.0000   1.0000   1.0000   1.0000   1.0000   1.0000   1.0000   1.0000
     0.1567   0.1567  -0.0000  -0.0000  -0.0000  -0.0000  -0.0000  -0.0000
    -0.0000  -0.0000  -0.0000  -0.0000  -0.0000  -0.0000  -0.0000  -0.0000
    -0.0000  -0.0000

          k = 0.5000 0.1216-0.1440 (  6492 PWs)   bands (ev):

   -18.8671 -18.8671 -18.8671 -18.8671 -18.3374 -18.3374 -18.3374 -18.3374
    -1.9241  -1.9241  -1.9241  -1.9241  -1.5397  -1.5397  -1.5397  -1.5397
     5.4513   5.4513   5.4513   5.4513   6.0013   6.0013   6.0013   6.0013
     7.5075   7.5075   7.5075   7.5075   9.3784   9.3784   9.3784   9.3784
    20.1730  20.1730  20.1730  20.1730  21.2231  21.2231  21.2231  21.2231
    22.0617  22.0617  22.0617  22.0617  22.8050  22.8050  22.8050  22.8050
    23.3653  23.3653  23.3653  23.3653  23.7579  23.7579  23.7579  23.7579
    23.8876  23.8876  23.8876  23.8876  24.4932  24.4932  24.4932  24.4932
    24.9258  24.9258  24.9258  24.9258  25.3613  25.3613  25.3613  25.3614
    25.4694  25.4694

     occupation numbers 
     1.0000   1.0000   1.0000   1.0000   1.0000   1.0000   1.0000   1.0000
     1.0000   1.0000   1.0000   1.0000   1.0000   1.0000   1.0000   1.0000
     1.0000   1.0000   1.0000   1.0000   1.0000   1.0000   1.0000   1.0000
     1.0000   1.0000   1.0000   1.0000   1.0000   1.0000   1.0000   1.0000
     1.0000   1.0000   1.0000   1.0000   1.0000   1.0000   1.0000   1.0000
     1.0000   1.0000   1.0000   1.0000   1.0000   1.0000   1.0000   1.0000
     1.0000   1.0000   1.0000   1.0000   1.0000   1.0000   1.0000   1.0000
     1.0000   1.0000   1.0000   1.0000  -0.0000  -0.0000  -0.0000  -0.0000
    -0.0000  -0.0000  -0.0000  -0.0000  -0.0000  -0.0000  -0.0000  -0.0000
    -0.0000  -0.0000

     the Fermi energy is    24.0868 ev

!    total energy              =    -519.43538753 Ry
     Harris-Foulkes estimate   =    -519.43538753 Ry
     estimated scf accuracy    <          2.7E-11 Ry

     The total energy is the sum of the following terms:

     one-electron contribution =      45.61781820 Ry
     hartree contribution      =      36.55408628 Ry
     xc contribution           =    -167.51528611 Ry
     ewald contribution        =    -434.09203257 Ry
     smearing contrib. (-TS)   =       0.00002668 Ry

     convergence has been achieved in  16 iterations

     Writing output data file ./Uranium.save/

     init_run     :      6.01s CPU      6.43s WALL (       1 calls)
     electrons    :    195.46s CPU    206.97s WALL (       1 calls)

     Called by init_run:
     wfcinit      :      4.63s CPU      5.01s WALL (       1 calls)
     wfcinit:atom :      0.03s CPU      0.03s WALL (      30 calls)
     wfcinit:wfcr :      4.28s CPU      4.66s WALL (      30 calls)
     potinit      :      0.05s CPU      0.05s WALL (       1 calls)
     hinit0       :      0.47s CPU      0.48s WALL (       1 calls)

     Called by electrons:
     c_bands      :    155.75s CPU    165.10s WALL (      16 calls)
     sum_band     :     26.01s CPU     27.89s WALL (      16 calls)
     v_of_rho     :      0.12s CPU      0.13s WALL (      17 calls)
     v_h          :      0.01s CPU      0.01s WALL (      17 calls)
     v_xc         :      0.12s CPU      0.13s WALL (      17 calls)
     newd         :     14.33s CPU     14.62s WALL (      17 calls)
     mix_rho      :      0.07s CPU      0.07s WALL (      16 calls)

     Called by c_bands:
     init_us_2    :      0.52s CPU      0.55s WALL (     990 calls)
     cegterg      :    138.48s CPU    147.67s WALL (     480 calls)

     Called by sum_band:
     sum_band:bec :     10.36s CPU     10.37s WALL (     480 calls)
     addusdens    :      3.11s CPU      3.48s WALL (      16 calls)

     Called by *egterg:
     h_psi        :     78.16s CPU     86.94s WALL (    2831 calls)
     s_psi        :     14.45s CPU     14.76s WALL (    2831 calls)
     g_psi        :      0.41s CPU      0.41s WALL (    2321 calls)
     cdiaghg      :     27.80s CPU     27.85s WALL (    2801 calls)
     cegterg:over :      9.28s CPU      9.53s WALL (    2321 calls)
     cegterg:upda :      6.11s CPU      6.12s WALL (    2321 calls)
     cegterg:last :      2.87s CPU      2.87s WALL (     512 calls)

     Called by h_psi:
     h_psi:calbec :      8.37s CPU      9.17s WALL (    2831 calls)
     vloc_psi     :     56.77s CPU     64.57s WALL (    2831 calls)
     add_vuspsi   :     12.42s CPU     12.55s WALL (    2831 calls)

     General routines
     calbec       :     11.08s CPU     12.08s WALL (    3311 calls)
     fft          :      0.07s CPU      0.07s WALL (     235 calls)
     ffts         :      0.02s CPU      0.02s WALL (      64 calls)
     fftw         :     60.77s CPU     69.11s WALL (  484424 calls)

     Parallel routines
     fft_scatt_xy :      6.55s CPU      7.45s WALL (  484723 calls)
     fft_scatt_yz :     32.97s CPU     37.65s WALL (  484723 calls)

     PWSCF        :   3m24.77s CPU   3m37.04s WALL


   This run was terminated on:  16:17: 3  18Jul2020            

=------------------------------------------------------------------------------=
   JOB DONE.
=------------------------------------------------------------------------------=
