
     Program PWSCF v.6.4 starts on 18Jul2020 at 12:29:51 

     This program is part of the open-source Quantum ESPRESSO suite
     for quantum simulation of materials; please cite
         "P. Giannozzi et al., J. Phys.:Condens. Matter 21 395502 (2009);
         "P. Giannozzi et al., J. Phys.:Condens. Matter 29 465901 (2017);
          URL http://www.quantum-espresso.org", 
     in publications or presentations arising from this work. More details at
     http://www.quantum-espresso.org/quote

     Parallel version (MPI), running on    24 processors

     MPI processes distributed on     1 nodes
     R & G space division:  proc/nbgrp/npool/nimage =      24
     Waiting for input...
     Reading input from standard input

     Current dimensions of program PWSCF are:
     Max number of different atomic species (ntypx) = 10
     Max number of k-points (npk) =  40000
     Max angular momentum in pseudopotentials (lmaxx) =  3
               file U.rel-pbe-spfn-rrkjus_psl.1.0.0.UPF: wavefunction(s)  5F renormalized

     Subspace diagonalization in iterative solution of the eigenvalue problem:
     a serial algorithm will be used


     Parallelization info
     --------------------
     sticks:   dense  smooth     PW     G-vecs:    dense   smooth      PW
     Min          62      62     18                 2172     2172     344
     Max          63      63     19                 2175     2175     347
     Sum        1493    1493    433                52173    52173    8293



     bravais-lattice index     =            8
     lattice parameter (alat)  =       5.3951  a.u.
     unit-cell volume          =     560.6537 (a.u.)^3
     number of atoms/cell      =            4
     number of atomic types    =            1
     number of electrons       =        56.00
     number of Kohn-Sham states=           74
     kinetic-energy cutoff     =      78.0000  Ry
     charge density cutoff     =     312.0000  Ry
     convergence threshold     =      1.0E-10
     mixing beta               =       0.5000
     number of iterations used =            8  plain     mixing
     Exchange-correlation      = PBE ( 1  4  3  4 0 0)
     Non magnetic calculation with spin-orbit


     celldm(1)=   5.395085  celldm(2)=   2.056412  celldm(3)=   1.736160
     celldm(4)=   0.000000  celldm(5)=   0.000000  celldm(6)=   0.000000

     crystal axes: (cart. coord. in units of alat)
               a(1) = (   1.000000   0.000000   0.000000 )  
               a(2) = (   0.000000   2.056412   0.000000 )  
               a(3) = (   0.000000   0.000000   1.736160 )  

     reciprocal axes: (cart. coord. in units 2 pi/alat)
               b(1) = (  1.000000  0.000000  0.000000 )  
               b(2) = (  0.000000  0.486284  0.000000 )  
               b(3) = (  0.000000  0.000000  0.575984 )  


     PseudoPot. # 1 for U  read from file:
     ../U.rel-pbe-spfn-rrkjus_psl.1.0.0.UPF
     MD5 check sum: 37aecf02b57b5a45ea9b56cdc2d32e64
     Pseudo is Ultrasoft + core correction, Zval = 14.0
     Generated using "atomic" code by A. Dal Corso v.6.2.2
     Using radial grid of 1291 points, 14 beta functions with: 
                l(1) =   0
                l(2) =   0
                l(3) =   1
                l(4) =   1
                l(5) =   1
                l(6) =   1
                l(7) =   2
                l(8) =   2
                l(9) =   2
               l(10) =   2
               l(11) =   3
               l(12) =   3
               l(13) =   3
               l(14) =   3
     Q(r) pseudized with 0 coefficients 


     atomic species   valence    mass     pseudopotential
        U             14.00   238.02891     U ( 1.00)

     No symmetry found


                                    s                        frac. trans.

      isym =  1     identity                                     

 cryst.   s( 1) = (     1          0          0      )
                  (     0          1          0      )
                  (     0          0          1      )

 cart.    s( 1) = (  1.0000000  0.0000000  0.0000000 )
                  (  0.0000000  1.0000000  0.0000000 )
                  (  0.0000000  0.0000000  1.0000000 )


     double point group C_1 (1)    
     there are  2 classes and  1 irreducible representations
     the character table:

       E     -E   
                  
G_2    1.00 -1.00

     the symmetry operations in each class and the name of the first element:

     E             1
          identity                                               
     -E           -1
          identity E                                             

   Cartesian axes

     site n.     atom                  positions (alat units)
         1           U   tau(   1) = (   0.0000000   0.2107108   0.4338946  )
         2           U   tau(   2) = (   0.0000000   1.8450126   1.3016838  )
         3           U   tau(   3) = (   0.4998326   1.2385725   0.4338946  )
         4           U   tau(   4) = (   0.4998326   0.8171509   1.3016838  )

   Crystallographic axes

     site n.     atom                  positions (cryst. coord.)
         1           U   tau(   1) = (  0.0000000  0.1024652  0.2499163  )
         2           U   tau(   2) = (  0.0000000  0.8971999  0.7497488  )
         3           U   tau(   3) = (  0.4998326  0.6022978  0.2499163  )
         4           U   tau(   4) = (  0.4998326  0.3973673  0.7497488  )

     number of k points=    36  Methfessel-Paxton smearing, width (Ry)=  0.0020
                       cart. coord. in units 2pi/alat
        k(    1) = (   0.0000000   0.0000000   0.0000000), wk =   0.0156250
        k(    2) = (   0.0000000   0.0000000   0.1439960), wk =   0.0312500
        k(    3) = (   0.0000000   0.0000000  -0.2879919), wk =   0.0156250
        k(    4) = (   0.0000000   0.1215710   0.0000000), wk =   0.0312500
        k(    5) = (   0.0000000   0.1215710   0.1439960), wk =   0.0312500
        k(    6) = (   0.0000000   0.1215710  -0.2879919), wk =   0.0312500
        k(    7) = (   0.0000000  -0.2431419   0.0000000), wk =   0.0156250
        k(    8) = (   0.0000000  -0.2431419   0.1439960), wk =   0.0312500
        k(    9) = (   0.0000000  -0.2431419  -0.2879919), wk =   0.0156250
        k(   10) = (   0.2500000   0.0000000   0.0000000), wk =   0.0312500
        k(   11) = (   0.2500000   0.0000000   0.1439960), wk =   0.0312500
        k(   12) = (   0.2500000   0.0000000  -0.2879919), wk =   0.0312500
        k(   13) = (   0.2500000   0.1215710   0.0000000), wk =   0.0312500
        k(   14) = (   0.2500000   0.1215710   0.1439960), wk =   0.0312500
        k(   15) = (   0.2500000   0.1215710  -0.2879919), wk =   0.0312500
        k(   16) = (   0.2500000  -0.2431419   0.0000000), wk =   0.0312500
        k(   17) = (   0.2500000  -0.2431419   0.1439960), wk =   0.0312500
        k(   18) = (   0.2500000  -0.2431419  -0.2879919), wk =   0.0312500
        k(   19) = (  -0.5000000   0.0000000   0.0000000), wk =   0.0156250
        k(   20) = (  -0.5000000   0.0000000   0.1439960), wk =   0.0312500
        k(   21) = (  -0.5000000   0.0000000  -0.2879919), wk =   0.0156250
        k(   22) = (  -0.5000000   0.1215710   0.0000000), wk =   0.0312500
        k(   23) = (  -0.5000000   0.1215710   0.1439960), wk =   0.0312500
        k(   24) = (  -0.5000000   0.1215710  -0.2879919), wk =   0.0312500
        k(   25) = (  -0.5000000  -0.2431419   0.0000000), wk =   0.0156250
        k(   26) = (  -0.5000000  -0.2431419   0.1439960), wk =   0.0312500
        k(   27) = (  -0.5000000  -0.2431419  -0.2879919), wk =   0.0156250
        k(   28) = (   0.0000000  -0.1215710   0.1439960), wk =   0.0312500
        k(   29) = (  -0.2500000   0.0000000   0.1439960), wk =   0.0312500
        k(   30) = (  -0.2500000   0.1215710   0.0000000), wk =   0.0312500
        k(   31) = (  -0.2500000  -0.1215710   0.1439960), wk =   0.0312500
        k(   32) = (  -0.2500000   0.1215710  -0.1439960), wk =   0.0312500
        k(   33) = (   0.2500000  -0.1215710  -0.1439960), wk =   0.0312500
        k(   34) = (  -0.2500000   0.1215710   0.2879919), wk =   0.0312500
        k(   35) = (  -0.2500000   0.2431419   0.1439960), wk =   0.0312500
        k(   36) = (   0.5000000  -0.1215710   0.1439960), wk =   0.0312500

                       cryst. coord.
        k(    1) = (   0.0000000   0.0000000   0.0000000), wk =   0.0156250
        k(    2) = (   0.0000000   0.0000000   0.2500000), wk =   0.0312500
        k(    3) = (   0.0000000   0.0000000  -0.5000000), wk =   0.0156250
        k(    4) = (   0.0000000   0.2500000   0.0000000), wk =   0.0312500
        k(    5) = (   0.0000000   0.2500000   0.2500000), wk =   0.0312500
        k(    6) = (   0.0000000   0.2500000  -0.5000000), wk =   0.0312500
        k(    7) = (   0.0000000  -0.5000000   0.0000000), wk =   0.0156250
        k(    8) = (   0.0000000  -0.5000000   0.2500000), wk =   0.0312500
        k(    9) = (   0.0000000  -0.5000000  -0.5000000), wk =   0.0156250
        k(   10) = (   0.2500000   0.0000000   0.0000000), wk =   0.0312500
        k(   11) = (   0.2500000   0.0000000   0.2500000), wk =   0.0312500
        k(   12) = (   0.2500000   0.0000000  -0.5000000), wk =   0.0312500
        k(   13) = (   0.2500000   0.2500000   0.0000000), wk =   0.0312500
        k(   14) = (   0.2500000   0.2500000   0.2500000), wk =   0.0312500
        k(   15) = (   0.2500000   0.2500000  -0.5000000), wk =   0.0312500
        k(   16) = (   0.2500000  -0.5000000   0.0000000), wk =   0.0312500
        k(   17) = (   0.2500000  -0.5000000   0.2500000), wk =   0.0312500
        k(   18) = (   0.2500000  -0.5000000  -0.5000000), wk =   0.0312500
        k(   19) = (  -0.5000000   0.0000000   0.0000000), wk =   0.0156250
        k(   20) = (  -0.5000000   0.0000000   0.2500000), wk =   0.0312500
        k(   21) = (  -0.5000000   0.0000000  -0.5000000), wk =   0.0156250
        k(   22) = (  -0.5000000   0.2500000   0.0000000), wk =   0.0312500
        k(   23) = (  -0.5000000   0.2500000   0.2500000), wk =   0.0312500
        k(   24) = (  -0.5000000   0.2500000  -0.5000000), wk =   0.0312500
        k(   25) = (  -0.5000000  -0.5000000   0.0000000), wk =   0.0156250
        k(   26) = (  -0.5000000  -0.5000000   0.2500000), wk =   0.0312500
        k(   27) = (  -0.5000000  -0.5000000  -0.5000000), wk =   0.0156250
        k(   28) = (   0.0000000  -0.2500000   0.2500000), wk =   0.0312500
        k(   29) = (  -0.2500000   0.0000000   0.2500000), wk =   0.0312500
        k(   30) = (  -0.2500000   0.2500000   0.0000000), wk =   0.0312500
        k(   31) = (  -0.2500000  -0.2500000   0.2500000), wk =   0.0312500
        k(   32) = (  -0.2500000   0.2500000  -0.2500000), wk =   0.0312500
        k(   33) = (   0.2500000  -0.2500000  -0.2500000), wk =   0.0312500
        k(   34) = (  -0.2500000   0.2500000   0.5000000), wk =   0.0312500
        k(   35) = (  -0.2500000   0.5000000   0.2500000), wk =   0.0312500
        k(   36) = (   0.5000000  -0.2500000   0.2500000), wk =   0.0312500

     Dense  grid:    52173 G-vectors     FFT dimensions: (  32,  64,  54)

     Dynamical RAM for                 wfc:       0.61 MB

     Dynamical RAM for     wfc (w. buffer):      22.64 MB

     Dynamical RAM for           str. fact:       0.03 MB

     Dynamical RAM for           local pot:       0.00 MB

     Dynamical RAM for          nlocal pot:       1.03 MB

     Dynamical RAM for                qrad:       8.52 MB

     Dynamical RAM for          rho,v,vnew:       0.96 MB

     Dynamical RAM for               rhoin:       0.32 MB

     Dynamical RAM for            rho*nmix:       2.12 MB

     Dynamical RAM for           G-vectors:       0.14 MB

     Dynamical RAM for          h,s,v(r/c):       4.01 MB

     Dynamical RAM for          <psi|beta>:       0.56 MB

     Dynamical RAM for                 psi:       2.45 MB

     Dynamical RAM for                hpsi:       2.45 MB

     Dynamical RAM for                spsi:       2.45 MB

     Dynamical RAM for      wfcinit/wfcrot:       2.11 MB

     Dynamical RAM for           addusdens:      65.81 MB

     Estimated static dynamical RAM per process >      36.21 MB

     Estimated max dynamical RAM per process >     102.03 MB

     Estimated total dynamical RAM >       2.39 GB
 GCUTM =   230.03369250515260     

     Initial potential from superposition of free atoms

     starting charge   55.98267, renormalised to   56.00000
     Starting wfcs are  136 randomized atomic wfcs

     total cpu time spent up to now is        6.1 secs

     Self-consistent Calculation

     iteration #  1     ecut=    78.00 Ry     beta= 0.50
     Davidson diagonalization with overlap
     ethr =  1.00E-02,  avg # of iterations =  2.0

     total cpu time spent up to now is       12.5 secs

     total energy              =    -519.03949263 Ry
     Harris-Foulkes estimate   =    -519.77294565 Ry
     estimated scf accuracy    <       1.15475964 Ry

     iteration #  2     ecut=    78.00 Ry     beta= 0.50
     Davidson diagonalization with overlap
     ethr =  2.06E-03,  avg # of iterations =  3.8

     total cpu time spent up to now is       21.0 secs

     total energy              =    -519.31039769 Ry
     Harris-Foulkes estimate   =    -519.53893673 Ry
     estimated scf accuracy    <       0.49870191 Ry

     iteration #  3     ecut=    78.00 Ry     beta= 0.50
     Davidson diagonalization with overlap
     ethr =  8.91E-04,  avg # of iterations =  2.9

     total cpu time spent up to now is       27.7 secs

     total energy              =    -519.40470027 Ry
     Harris-Foulkes estimate   =    -519.44023865 Ry
     estimated scf accuracy    <       0.29866218 Ry

     iteration #  4     ecut=    78.00 Ry     beta= 0.50
     Davidson diagonalization with overlap
     ethr =  5.33E-04,  avg # of iterations =  1.0

     total cpu time spent up to now is       33.1 secs

     total energy              =    -519.42354380 Ry
     Harris-Foulkes estimate   =    -519.43907147 Ry
     estimated scf accuracy    <       0.19422379 Ry

     iteration #  5     ecut=    78.00 Ry     beta= 0.50
     Davidson diagonalization with overlap
     ethr =  3.47E-04,  avg # of iterations =  1.0

     total cpu time spent up to now is       38.5 secs

     total energy              =    -519.43107871 Ry
     Harris-Foulkes estimate   =    -519.43172432 Ry
     estimated scf accuracy    <       0.00206073 Ry

     iteration #  6     ecut=    78.00 Ry     beta= 0.50
     Davidson diagonalization with overlap
     c_bands:  1 eigenvalues not converged
     c_bands:  2 eigenvalues not converged
     ethr =  3.68E-06,  avg # of iterations = 10.1

     total cpu time spent up to now is       51.9 secs

     total energy              =    -519.43306219 Ry
     Harris-Foulkes estimate   =    -519.43709243 Ry
     estimated scf accuracy    <       0.06005816 Ry

     iteration #  7     ecut=    78.00 Ry     beta= 0.50
     Davidson diagonalization with overlap
     ethr =  3.68E-06,  avg # of iterations =  7.5

     total cpu time spent up to now is       63.9 secs

     total energy              =    -519.43504022 Ry
     Harris-Foulkes estimate   =    -519.43530026 Ry
     estimated scf accuracy    <       0.00158866 Ry

     iteration #  8     ecut=    78.00 Ry     beta= 0.50
     Davidson diagonalization with overlap
     ethr =  2.84E-06,  avg # of iterations =  4.1

     total cpu time spent up to now is       70.7 secs

     total energy              =    -519.43489924 Ry
     Harris-Foulkes estimate   =    -519.43538678 Ry
     estimated scf accuracy    <       0.00543185 Ry

     iteration #  9     ecut=    78.00 Ry     beta= 0.50
     Davidson diagonalization with overlap
     ethr =  2.84E-06,  avg # of iterations =  1.5

     total cpu time spent up to now is       76.4 secs

     total energy              =    -519.43512412 Ry
     Harris-Foulkes estimate   =    -519.43512772 Ry
     estimated scf accuracy    <       0.00010838 Ry

     iteration # 10     ecut=    78.00 Ry     beta= 0.50
     Davidson diagonalization with overlap
     ethr =  1.94E-07,  avg # of iterations =  6.1

     total cpu time spent up to now is       85.9 secs

     total energy              =    -519.43517947 Ry
     Harris-Foulkes estimate   =    -519.43519670 Ry
     estimated scf accuracy    <       0.00033606 Ry

     iteration # 11     ecut=    78.00 Ry     beta= 0.50
     Davidson diagonalization with overlap
     ethr =  1.94E-07,  avg # of iterations =  1.0

     total cpu time spent up to now is       91.3 secs

     total energy              =    -519.43517205 Ry
     Harris-Foulkes estimate   =    -519.43518450 Ry
     estimated scf accuracy    <       0.00010380 Ry

     iteration # 12     ecut=    78.00 Ry     beta= 0.50
     Davidson diagonalization with overlap
     ethr =  1.85E-07,  avg # of iterations =  4.2

     total cpu time spent up to now is       98.2 secs

     total energy              =    -519.43518422 Ry
     Harris-Foulkes estimate   =    -519.43518484 Ry
     estimated scf accuracy    <       0.00003065 Ry

     iteration # 13     ecut=    78.00 Ry     beta= 0.50
     Davidson diagonalization with overlap
     ethr =  5.47E-08,  avg # of iterations =  4.6

     total cpu time spent up to now is      105.4 secs

     total energy              =    -519.43518402 Ry
     Harris-Foulkes estimate   =    -519.43518739 Ry
     estimated scf accuracy    <       0.00004689 Ry

     iteration # 14     ecut=    78.00 Ry     beta= 0.50
     Davidson diagonalization with overlap
     ethr =  5.47E-08,  avg # of iterations =  1.0

     total cpu time spent up to now is      110.8 secs

     total energy              =    -519.43518490 Ry
     Harris-Foulkes estimate   =    -519.43518526 Ry
     estimated scf accuracy    <       0.00000683 Ry

     iteration # 15     ecut=    78.00 Ry     beta= 0.50
     Davidson diagonalization with overlap
     ethr =  1.22E-08,  avg # of iterations =  4.5

     total cpu time spent up to now is      117.9 secs

     total energy              =    -519.43518575 Ry
     Harris-Foulkes estimate   =    -519.43518582 Ry
     estimated scf accuracy    <       0.00000086 Ry

     iteration # 16     ecut=    78.00 Ry     beta= 0.50
     Davidson diagonalization with overlap
     ethr =  1.54E-09,  avg # of iterations =  5.9

     total cpu time spent up to now is      127.3 secs

     total energy              =    -519.43518624 Ry
     Harris-Foulkes estimate   =    -519.43518627 Ry
     estimated scf accuracy    <       0.00000114 Ry

     iteration # 17     ecut=    78.00 Ry     beta= 0.50
     Davidson diagonalization with overlap
     ethr =  1.54E-09,  avg # of iterations =  1.0

     total cpu time spent up to now is      132.7 secs

     total energy              =    -519.43518618 Ry
     Harris-Foulkes estimate   =    -519.43518625 Ry
     estimated scf accuracy    <       0.00000064 Ry

     iteration # 18     ecut=    78.00 Ry     beta= 0.50
     Davidson diagonalization with overlap
     ethr =  1.13E-09,  avg # of iterations =  1.4

     total cpu time spent up to now is      138.3 secs

     total energy              =    -519.43518623 Ry
     Harris-Foulkes estimate   =    -519.43518623 Ry
     estimated scf accuracy    <       0.00000001 Ry

     iteration # 19     ecut=    78.00 Ry     beta= 0.50
     Davidson diagonalization with overlap
     ethr =  2.35E-11,  avg # of iterations =  7.5

     total cpu time spent up to now is      150.0 secs

     total energy              =    -519.43518625 Ry
     Harris-Foulkes estimate   =    -519.43518627 Ry
     estimated scf accuracy    <       0.00000038 Ry

     iteration # 20     ecut=    78.00 Ry     beta= 0.50
     Davidson diagonalization with overlap
     ethr =  2.35E-11,  avg # of iterations =  4.9

     total cpu time spent up to now is      157.8 secs

     total energy              =    -519.43518624 Ry
     Harris-Foulkes estimate   =    -519.43518625 Ry
     estimated scf accuracy    <       0.00000006 Ry

     iteration # 21     ecut=    78.00 Ry     beta= 0.50
     Davidson diagonalization with overlap
     ethr =  2.35E-11,  avg # of iterations =  5.2

     total cpu time spent up to now is      166.3 secs

     total energy              =    -519.43518625 Ry
     Harris-Foulkes estimate   =    -519.43518625 Ry
     estimated scf accuracy    <       0.00000003 Ry

     iteration # 22     ecut=    78.00 Ry     beta= 0.50
     Davidson diagonalization with overlap
     ethr =  2.35E-11,  avg # of iterations =  1.0

     total cpu time spent up to now is      171.7 secs

     total energy              =    -519.43518625 Ry
     Harris-Foulkes estimate   =    -519.43518625 Ry
     estimated scf accuracy    <       0.00000001 Ry

     iteration # 23     ecut=    78.00 Ry     beta= 0.50
     Davidson diagonalization with overlap
     ethr =  2.00E-11,  avg # of iterations =  1.0

     total cpu time spent up to now is      177.1 secs

     total energy              =    -519.43518625 Ry
     Harris-Foulkes estimate   =    -519.43518625 Ry
     estimated scf accuracy    <          8.7E-10 Ry

     iteration # 24     ecut=    78.00 Ry     beta= 0.50
     Davidson diagonalization with overlap
     ethr =  1.56E-12,  avg # of iterations =  6.1

     total cpu time spent up to now is      186.5 secs

     total energy              =    -519.43518625 Ry
     Harris-Foulkes estimate   =    -519.43518625 Ry
     estimated scf accuracy    <          5.6E-09 Ry

     iteration # 25     ecut=    78.00 Ry     beta= 0.50
     Davidson diagonalization with overlap
     ethr =  1.56E-12,  avg # of iterations =  1.0

     total cpu time spent up to now is      191.9 secs

     total energy              =    -519.43518625 Ry
     Harris-Foulkes estimate   =    -519.43518625 Ry
     estimated scf accuracy    <          3.4E-09 Ry

     iteration # 26     ecut=    78.00 Ry     beta= 0.50
     Davidson diagonalization with overlap
     ethr =  1.56E-12,  avg # of iterations =  3.6

     total cpu time spent up to now is      198.5 secs

     total energy              =    -519.43518625 Ry
     Harris-Foulkes estimate   =    -519.43518625 Ry
     estimated scf accuracy    <          1.3E-10 Ry

     iteration # 27     ecut=    78.00 Ry     beta= 0.50
     Davidson diagonalization with overlap
     ethr =  2.26E-13,  avg # of iterations =  5.2

     total cpu time spent up to now is      206.5 secs

     End of self-consistent calculation

          k = 0.0000 0.0000 0.0000 (  6535 PWs)   bands (ev):

   -19.7667 -19.7667 -19.3140 -19.3140 -18.8173 -18.8173 -18.7546 -18.7546
    -1.6911  -1.6911  -1.6005  -1.6005  -0.9977  -0.9977   0.2375   0.2375
     5.5117   5.5117   5.9172   5.9172   6.6353   6.6353   9.0773   9.0773
     9.2448   9.2448   9.9285   9.9285  10.0460  10.0460  10.6889  10.6889
    19.6905  19.6905  20.7285  20.7285  20.9459  20.9459  22.8944  22.8944
    22.9245  22.9245  23.0122  23.0122  23.0895  23.0895  23.1383  23.1383
    23.4257  23.4257  23.4861  23.4861  23.5461  23.5461  24.0134  24.0134
    24.6005  24.6005  24.6748  24.6748  24.8265  24.8265  24.8390  24.8390
    24.8483  24.8483  24.9996  24.9996  25.0847  25.0847  25.1140  25.1140
    25.2219  25.2219

     occupation numbers 
     1.0000   1.0000   1.0000   1.0000   1.0000   1.0000   1.0000   1.0000
     1.0000   1.0000   1.0000   1.0000   1.0000   1.0000   1.0000   1.0000
     1.0000   1.0000   1.0000   1.0000   1.0000   1.0000   1.0000   1.0000
     1.0000   1.0000   1.0000   1.0000   1.0000   1.0000   1.0000   1.0000
     1.0000   1.0000   1.0000   1.0000   1.0000   1.0000   1.0000   1.0000
     1.0000   1.0000   1.0000   1.0000   1.0000   1.0000   1.0000   1.0000
     1.0000   1.0000   1.0000   1.0000   1.0000   1.0000   1.0152   1.0152
    -0.0000  -0.0000  -0.0000  -0.0000  -0.0000  -0.0000  -0.0000  -0.0000
    -0.0000  -0.0000  -0.0000  -0.0000  -0.0000  -0.0000  -0.0000  -0.0000
    -0.0000  -0.0000

          k = 0.0000 0.0000 0.1440 (  6530 PWs)   bands (ev):

   -19.6392 -19.6392 -19.2345 -19.2345 -18.9694 -18.9694 -18.8390 -18.8390
    -1.5721  -1.5721  -1.3713  -1.3713  -1.1351  -1.1351  -0.0091  -0.0091
     5.7501   5.7501   6.3485   6.3485   6.5738   6.5738   9.0744   9.0744
     9.2888   9.2888   9.6391   9.6391  10.0603  10.0603  10.2578  10.2578
    20.6126  20.6126  20.8120  20.8120  20.9691  20.9691  21.5141  21.5141
    21.9744  21.9744  22.8512  22.8512  23.0332  23.0332  23.0654  23.0654
    23.1341  23.1341  23.5107  23.5107  24.1700  24.1700  24.2530  24.2530
    24.6197  24.6197  24.6327  24.6327  24.7088  24.7088  24.7229  24.7229
    24.8166  24.8166  24.8462  24.8462  24.9846  24.9846  25.0231  25.0231
    25.0792  25.0793

     occupation numbers 
     1.0000   1.0000   1.0000   1.0000   1.0000   1.0000   1.0000   1.0000
     1.0000   1.0000   1.0000   1.0000   1.0000   1.0000   1.0000   1.0000
     1.0000   1.0000   1.0000   1.0000   1.0000   1.0000   1.0000   1.0000
     1.0000   1.0000   1.0000   1.0000   1.0000   1.0000   1.0000   1.0000
     1.0000   1.0000   1.0000   1.0000   1.0000   1.0000   1.0000   1.0000
     1.0000   1.0000   1.0000   1.0000   1.0000   1.0000   1.0000   1.0000
     1.0000   1.0000   1.0000   1.0000  -0.0000  -0.0000  -0.0000  -0.0000
    -0.0000  -0.0000  -0.0000  -0.0000  -0.0000  -0.0000  -0.0000  -0.0000
    -0.0000  -0.0000  -0.0000  -0.0000  -0.0000  -0.0000  -0.0000  -0.0000
    -0.0000  -0.0000

          k = 0.0000 0.0000-0.2880 (  6546 PWs)   bands (ev):

   -19.3177 -19.3177 -19.3153 -19.3153 -19.0400 -19.0400 -19.0386 -19.0386
    -1.4081  -1.4081  -1.4070  -1.4070  -0.6545  -0.6545  -0.6513  -0.6513
     6.2339   6.2339   6.2350   6.2350   7.5968   7.5968   7.6017   7.6017
     9.5759   9.5759   9.5761   9.5761  10.1120  10.1120  10.1126  10.1126
    20.6538  20.6538  20.6541  20.6541  21.0364  21.0364  21.0370  21.0370
    21.9348  21.9348  21.9382  21.9382  22.8517  22.8517  22.8519  22.8519
    23.5134  23.5134  23.5156  23.5156  24.4975  24.4975  24.4975  24.4975
    24.5492  24.5492  24.5510  24.5510  24.8004  24.8004  24.8009  24.8009
    24.8267  24.8267  24.8278  24.8278  24.9506  24.9506  24.9524  24.9524
    25.2460  25.2463

     occupation numbers 
     1.0000   1.0000   1.0000   1.0000   1.0000   1.0000   1.0000   1.0000
     1.0000   1.0000   1.0000   1.0000   1.0000   1.0000   1.0000   1.0000
     1.0000   1.0000   1.0000   1.0000   1.0000   1.0000   1.0000   1.0000
     1.0000   1.0000   1.0000   1.0000   1.0000   1.0000   1.0000   1.0000
     1.0000   1.0000   1.0000   1.0000   1.0000   1.0000   1.0000   1.0000
     1.0000   1.0000   1.0000   1.0000   1.0000   1.0000   1.0000   1.0000
     1.0000   1.0000   1.0000   1.0000  -0.0000  -0.0000  -0.0000  -0.0000
    -0.0000  -0.0000  -0.0000  -0.0000  -0.0000  -0.0000  -0.0000  -0.0000
    -0.0000  -0.0000  -0.0000  -0.0000  -0.0000  -0.0000  -0.0000  -0.0000
    -0.0000  -0.0000

          k = 0.0000 0.1216 0.0000 (  6543 PWs)   bands (ev):

   -19.7087 -19.7087 -19.3920 -19.3920 -18.8019 -18.8019 -18.7541 -18.7541
    -1.6823  -1.6823  -1.6358  -1.6358  -0.7744  -0.7744   0.0808   0.0808
     5.4431   5.4431   5.7827   5.7827   7.1055   7.1055   9.0282   9.0282
     9.3078   9.3078   9.5889   9.5889   9.7872   9.7872  10.5267  10.5267
    20.5604  20.5604  21.0869  21.0869  21.6271  21.6271  22.4371  22.4371
    22.6982  22.6982  22.7566  22.7566  23.0433  23.0433  23.4495  23.4495
    23.4684  23.4684  23.4843  23.4843  23.6045  23.6045  24.0533  24.0533
    24.6215  24.6215  24.6898  24.6898  24.8248  24.8249  24.8275  24.8275
    24.9172  24.9172  24.9631  24.9631  25.0589  25.0589  25.1446  25.1446
    25.2260  25.2260

     occupation numbers 
     1.0000   1.0000   1.0000   1.0000   1.0000   1.0000   1.0000   1.0000
     1.0000   1.0000   1.0000   1.0000   1.0000   1.0000   1.0000   1.0000
     1.0000   1.0000   1.0000   1.0000   1.0000   1.0000   1.0000   1.0000
     1.0000   1.0000   1.0000   1.0000   1.0000   1.0000   1.0000   1.0000
     1.0000   1.0000   1.0000   1.0000   1.0000   1.0000   1.0000   1.0000
     1.0000   1.0000   1.0000   1.0000   1.0000   1.0000   1.0000   1.0000
     1.0000   1.0000   1.0000   1.0000   1.0000   1.0000   0.7538   0.7538
    -0.0000  -0.0000  -0.0000  -0.0000  -0.0000  -0.0000  -0.0000  -0.0000
    -0.0000  -0.0000  -0.0000  -0.0000  -0.0000  -0.0000  -0.0000  -0.0000
    -0.0000  -0.0000

          k = 0.0000 0.1216 0.1440 (  6532 PWs)   bands (ev):

   -19.5863 -19.5863 -19.3025 -19.3025 -18.9462 -18.9462 -18.8517 -18.8517
    -1.5529  -1.5529  -1.3989  -1.3989  -0.9386  -0.9386  -0.1542  -0.1542
     5.7520   5.7520   6.2073   6.2073   6.9387   6.9387   8.8092   8.8092
     9.0609   9.0609   9.6415   9.6415   9.8382   9.8382  10.3480  10.3480
    20.9861  20.9861  21.1871  21.1871  21.5710  21.5710  21.6080  21.6080
    22.1963  22.1963  22.5756  22.5756  22.7437  22.7437  23.0652  23.0652
    23.3187  23.3187  23.8487  23.8487  24.0928  24.0928  24.2228  24.2228
    24.5525  24.5525  24.6606  24.6606  24.7237  24.7237  24.7744  24.7744
    24.8351  24.8351  24.9413  24.9413  24.9472  24.9472  25.1463  25.1463
    25.1580  25.1580

     occupation numbers 
     1.0000   1.0000   1.0000   1.0000   1.0000   1.0000   1.0000   1.0000
     1.0000   1.0000   1.0000   1.0000   1.0000   1.0000   1.0000   1.0000
     1.0000   1.0000   1.0000   1.0000   1.0000   1.0000   1.0000   1.0000
     1.0000   1.0000   1.0000   1.0000   1.0000   1.0000   1.0000   1.0000
     1.0000   1.0000   1.0000   1.0000   1.0000   1.0000   1.0000   1.0000
     1.0000   1.0000   1.0000   1.0000   1.0000   1.0000   1.0000   1.0000
     1.0000   1.0000   1.0000   1.0000  -0.0341  -0.0341  -0.0000  -0.0000
    -0.0000  -0.0000  -0.0000  -0.0000  -0.0000  -0.0000  -0.0000  -0.0000
    -0.0000  -0.0000  -0.0000  -0.0000  -0.0000  -0.0000  -0.0000  -0.0000
    -0.0000  -0.0000

          k = 0.0000 0.1216-0.2880 (  6538 PWs)   bands (ev):

   -19.2783 -19.2783 -19.2761 -19.2761 -19.0820 -19.0820 -19.0804 -19.0804
    -1.2872  -1.2872  -1.2857  -1.2857  -0.7535  -0.7535  -0.7506  -0.7506
     6.4027   6.4027   6.4047   6.4047   7.3735   7.3735   7.3780   7.3780
     9.5939   9.5939   9.5947   9.5947   9.9396   9.9396   9.9401   9.9401
    20.9497  20.9497  20.9510  20.9510  21.7246  21.7246  21.7255  21.7255
    22.1326  22.1326  22.1350  22.1350  22.5850  22.5850  22.5870  22.5870
    23.4482  23.4482  23.4502  23.4502  24.4161  24.4161  24.4185  24.4185
    24.4678  24.4678  24.4682  24.4682  24.7899  24.7899  24.7907  24.7907
    24.8310  24.8310  24.8314  24.8314  24.9667  24.9667  24.9678  24.9678
    25.3414  25.3421

     occupation numbers 
     1.0000   1.0000   1.0000   1.0000   1.0000   1.0000   1.0000   1.0000
     1.0000   1.0000   1.0000   1.0000   1.0000   1.0000   1.0000   1.0000
     1.0000   1.0000   1.0000   1.0000   1.0000   1.0000   1.0000   1.0000
     1.0000   1.0000   1.0000   1.0000   1.0000   1.0000   1.0000   1.0000
     1.0000   1.0000   1.0000   1.0000   1.0000   1.0000   1.0000   1.0000
     1.0000   1.0000   1.0000   1.0000   1.0000   1.0000   1.0000   1.0000
     1.0000   1.0000   1.0000   1.0000  -0.0000  -0.0000  -0.0000  -0.0000
    -0.0000  -0.0000  -0.0000  -0.0000  -0.0000  -0.0000  -0.0000  -0.0000
    -0.0000  -0.0000  -0.0000  -0.0000  -0.0000  -0.0000  -0.0000  -0.0000
    -0.0000  -0.0000

          k = 0.0000-0.2431 0.0000 (  6516 PWs)   bands (ev):

   -19.5600 -19.5600 -19.5591 -19.5591 -18.7714 -18.7714 -18.7701 -18.7701
    -1.6658  -1.6658  -1.6645  -1.6645  -0.3213  -0.3213  -0.3198  -0.3198
     5.5292   5.5292   5.5300   5.5300   8.1452   8.1452   8.1456   8.1456
     9.2767   9.2767   9.2769   9.2769  10.1106  10.1106  10.1134  10.1134
    21.4101  21.4101  21.4128  21.4128  22.4402  22.4402  22.4446  22.4446
    22.8129  22.8129  22.8140  22.8140  23.1618  23.1618  23.1643  23.1643
    23.3117  23.3117  23.3133  23.3133  23.9566  23.9566  23.9594  23.9594
    24.7482  24.7482  24.7485  24.7485  24.8371  24.8371  24.8386  24.8386
    24.8706  24.8706  24.8723  24.8723  25.0874  25.0874  25.0877  25.0878
    25.2097  25.2107

     occupation numbers 
     1.0000   1.0000   1.0000   1.0000   1.0000   1.0000   1.0000   1.0000
     1.0000   1.0000   1.0000   1.0000   1.0000   1.0000   1.0000   1.0000
     1.0000   1.0000   1.0000   1.0000   1.0000   1.0000   1.0000   1.0000
     1.0000   1.0000   1.0000   1.0000   1.0000   1.0000   1.0000   1.0000
     1.0000   1.0000   1.0000   1.0000   1.0000   1.0000   1.0000   1.0000
     1.0000   1.0000   1.0000   1.0000   1.0000   1.0000   1.0000   1.0000
     1.0000   1.0000   1.0000   1.0000   1.0000   1.0000   1.0000   1.0000
    -0.0000  -0.0000  -0.0000  -0.0000  -0.0000  -0.0000  -0.0000  -0.0000
    -0.0000  -0.0000  -0.0000  -0.0000  -0.0000  -0.0000  -0.0000  -0.0000
    -0.0000  -0.0000

          k = 0.0000-0.2431 0.1440 (  6514 PWs)   bands (ev):

   -19.4517 -19.4517 -19.4510 -19.4510 -18.8947 -18.8947 -18.8938 -18.8938
    -1.4759  -1.4759  -1.4750  -1.4750  -0.5259  -0.5259  -0.5245  -0.5245
     5.9192   5.9192   5.9201   5.9201   7.8016   7.8017   7.8031   7.8032
     9.2244   9.2245   9.2270   9.2270  10.1627  10.1629  10.1634  10.1636
    21.1965  21.1966  21.1994  21.1994  21.9515  21.9516  21.9554  21.9555
    22.5480  22.5480  22.5493  22.5493  23.2225  23.2225  23.2235  23.2235
    23.7544  23.7545  23.7576  23.7576  24.1833  24.1834  24.1858  24.1858
    24.3675  24.3676  24.3690  24.3692  24.7671  24.7673  24.7684  24.7686
    24.8715  24.8716  24.8727  24.8728  25.0833  25.0833  25.0853  25.0854
    25.3490  25.3502

     occupation numbers 
     1.0000   1.0000   1.0000   1.0000   1.0000   1.0000   1.0000   1.0000
     1.0000   1.0000   1.0000   1.0000   1.0000   1.0000   1.0000   1.0000
     1.0000   1.0000   1.0000   1.0000   1.0000   1.0000   1.0000   1.0000
     1.0000   1.0000   1.0000   1.0000   1.0000   1.0000   1.0000   1.0000
     1.0000   1.0000   1.0000   1.0000   1.0000   1.0000   1.0000   1.0000
     1.0000   1.0000   1.0000   1.0000   1.0000   1.0000   1.0000   1.0000
     1.0000   1.0000   1.0000   1.0000  -0.0000  -0.0000  -0.0000  -0.0000
    -0.0000  -0.0000  -0.0000  -0.0000  -0.0000  -0.0000  -0.0000  -0.0000
    -0.0000  -0.0000  -0.0000  -0.0000  -0.0000  -0.0000  -0.0000  -0.0000
    -0.0000  -0.0000

          k = 0.0000-0.2431-0.2880 (  6552 PWs)   bands (ev):

   -19.1816 -19.1816 -19.1815 -19.1815 -19.1794 -19.1794 -19.1794 -19.1794
    -1.0097  -1.0097  -1.0093  -1.0093  -1.0071  -1.0071  -1.0067  -1.0067
     6.8573   6.8573   6.8579   6.8579   6.8612   6.8612   6.8618   6.8618
     9.6968   9.6968   9.6970   9.6970   9.6994   9.6994   9.6996   9.6996
    21.6046  21.6046  21.6055  21.6055  21.6064  21.6064  21.6073  21.6073
    22.6685  22.6685  22.6685  22.6685  22.6701  22.6701  22.6702  22.6702
    23.7359  23.7359  23.7364  23.7364  23.7402  23.7402  23.7407  23.7407
    24.6206  24.6206  24.6208  24.6208  24.6221  24.6221  24.6223  24.6223
    24.9267  24.9268  24.9270  24.9270  24.9286  24.9286  24.9288  24.9288
    25.4586  25.4589

     occupation numbers 
     1.0000   1.0000   1.0000   1.0000   1.0000   1.0000   1.0000   1.0000
     1.0000   1.0000   1.0000   1.0000   1.0000   1.0000   1.0000   1.0000
     1.0000   1.0000   1.0000   1.0000   1.0000   1.0000   1.0000   1.0000
     1.0000   1.0000   1.0000   1.0000   1.0000   1.0000   1.0000   1.0000
     1.0000   1.0000   1.0000   1.0000   1.0000   1.0000   1.0000   1.0000
     1.0000   1.0000   1.0000   1.0000   1.0000   1.0000   1.0000   1.0000
     1.0000   1.0000   1.0000   1.0000   1.0000   1.0000   1.0000   1.0000
    -0.0000  -0.0000  -0.0000  -0.0000  -0.0000  -0.0000  -0.0000  -0.0000
    -0.0000  -0.0000  -0.0000  -0.0000  -0.0000  -0.0000  -0.0000  -0.0000
    -0.0000  -0.0000

          k = 0.2500 0.0000 0.0000 (  6531 PWs)   bands (ev):

   -19.4462 -19.4462 -19.1097 -19.1097 -18.5503 -18.5503 -18.5037 -18.5037
    -1.7957  -1.7957  -1.7532  -1.7532  -1.2260  -1.2260  -0.4573  -0.4573
     5.7448   5.7448   5.8503   5.8503   6.2839   6.2839   7.1749   7.1749
     7.9586   7.9586   8.1460   8.1460   8.3890   8.3890  10.3441  10.3441
    21.0857  21.0857  21.5885  21.5885  21.6973  21.6973  22.0087  22.0087
    22.5110  22.5110  22.6355  22.6355  22.8426  22.8426  23.2995  23.2995
    23.4876  23.4876  23.7391  23.7391  23.9061  23.9061  24.1683  24.1683
    24.3331  24.3331  24.5257  24.5257  24.5382  24.5382  24.6293  24.6293
    24.7651  24.7651  24.7949  24.7949  25.0454  25.0454  25.0518  25.0518
    25.3463  25.3463

     occupation numbers 
     1.0000   1.0000   1.0000   1.0000   1.0000   1.0000   1.0000   1.0000
     1.0000   1.0000   1.0000   1.0000   1.0000   1.0000   1.0000   1.0000
     1.0000   1.0000   1.0000   1.0000   1.0000   1.0000   1.0000   1.0000
     1.0000   1.0000   1.0000   1.0000   1.0000   1.0000   1.0000   1.0000
     1.0000   1.0000   1.0000   1.0000   1.0000   1.0000   1.0000   1.0000
     1.0000   1.0000   1.0000   1.0000   1.0000   1.0000   1.0000   1.0000
     1.0000   1.0000   1.0000   1.0000   1.0000   1.0000  -0.0000  -0.0000
    -0.0000  -0.0000  -0.0000  -0.0000  -0.0000  -0.0000  -0.0000  -0.0000
    -0.0000  -0.0000  -0.0000  -0.0000  -0.0000  -0.0000  -0.0000  -0.0000
    -0.0000  -0.0000

          k = 0.2500 0.0000 0.1440 (  6537 PWs)   bands (ev):

   -19.3251 -19.3251 -19.0244 -19.0244 -18.6928 -18.6928 -18.5960 -18.5960
    -1.7045  -1.7045  -1.5616  -1.5616  -1.3205  -1.3205  -0.6167  -0.6167
     5.6395   5.6395   6.0938   6.0938   6.4479   6.4479   7.2905   7.2905
     7.7128   7.7128   8.2664   8.2664   8.6819   8.6819   9.6931   9.6931
    21.6057  21.6057  21.7041  21.7041  21.7511  21.7511  21.9097  21.9097
    22.1459  22.1459  22.4159  22.4160  23.0290  23.0290  23.2308  23.2308
    23.2505  23.2505  23.8074  23.8074  23.8637  23.8637  23.9711  23.9711
    24.2459  24.2459  24.3932  24.3932  24.4254  24.4254  24.5289  24.5289
    24.7469  24.7469  24.9609  24.9609  24.9680  24.9680  25.1701  25.1701
    25.2076  25.2076

     occupation numbers 
     1.0000   1.0000   1.0000   1.0000   1.0000   1.0000   1.0000   1.0000
     1.0000   1.0000   1.0000   1.0000   1.0000   1.0000   1.0000   1.0000
     1.0000   1.0000   1.0000   1.0000   1.0000   1.0000   1.0000   1.0000
     1.0000   1.0000   1.0000   1.0000   1.0000   1.0000   1.0000   1.0000
     1.0000   1.0000   1.0000   1.0000   1.0000   1.0000   1.0000   1.0000
     1.0000   1.0000   1.0000   1.0000   1.0000   1.0000   1.0000   1.0000
     1.0000   1.0000   1.0000   1.0000   1.0000   1.0000   1.0000   1.0000
    -0.0000  -0.0000  -0.0000  -0.0000  -0.0000  -0.0000  -0.0000  -0.0000
    -0.0000  -0.0000  -0.0000  -0.0000  -0.0000  -0.0000  -0.0000  -0.0000
    -0.0000  -0.0000

          k = 0.2500 0.0000-0.2880 (  6522 PWs)   bands (ev):

   -19.0207 -19.0207 -19.0184 -19.0184 -18.8146 -18.8145 -18.8128 -18.8128
    -1.5543  -1.5543  -1.5174  -1.5174  -1.0575  -1.0575  -1.0456  -1.0456
     5.7006   5.7006   6.0505   6.0505   6.7747   6.7747   7.2167   7.2167
     8.1429   8.1429   8.4283   8.4283   8.5249   8.5249   8.9532   8.9532
    21.4987  21.4987  21.6310  21.6310  21.7542  21.7542  21.8463  21.8463
    22.2617  22.2617  22.2769  22.2769  22.8258  22.8258  23.1422  23.1422
    23.5894  23.5894  23.7543  23.7543  24.0454  24.0454  24.1349  24.1349
    24.1559  24.1559  24.2172  24.2172  24.3949  24.3949  24.5117  24.5117
    24.6705  24.6705  24.8433  24.8433  24.8801  24.8801  25.0655  25.0655
    25.5111  25.5111

     occupation numbers 
     1.0000   1.0000   1.0000   1.0000   1.0000   1.0000   1.0000   1.0000
     1.0000   1.0000   1.0000   1.0000   1.0000   1.0000   1.0000   1.0000
     1.0000   1.0000   1.0000   1.0000   1.0000   1.0000   1.0000   1.0000
     1.0000   1.0000   1.0000   1.0000   1.0000   1.0000   1.0000   1.0000
     1.0000   1.0000   1.0000   1.0000   1.0000   1.0000   1.0000   1.0000
     1.0000   1.0000   1.0000   1.0000   1.0000   1.0000   1.0000   1.0000
     1.0000   1.0000   1.0000   1.0000   0.9227   0.9227  -0.0005  -0.0005
    -0.0000  -0.0000  -0.0000  -0.0000  -0.0000  -0.0000  -0.0000  -0.0000
    -0.0000  -0.0000  -0.0000  -0.0000  -0.0000  -0.0000  -0.0000  -0.0000
    -0.0000  -0.0000

          k = 0.2500 0.1216 0.0000 (  6519 PWs)   bands (ev):

   -19.4016 -19.4016 -19.1650 -19.1650 -18.5398 -18.5398 -18.5055 -18.5055
    -1.7947  -1.7947  -1.7715  -1.7715  -1.1015  -1.1015  -0.5652  -0.5652
     5.7462   5.7462   5.8775   5.8775   6.4099   6.4099   7.2617   7.2617
     7.6199   7.6199   8.0156   8.0156   8.7637   8.7637  10.1128  10.1128
    21.2458  21.2458  21.4583  21.4583  21.5857  21.5857  21.9347  21.9347
    22.6913  22.6913  23.0655  23.0655  23.1811  23.1811  23.2099  23.2099
    23.3887  23.3887  23.5742  23.5742  23.8835  23.8835  23.9050  23.9050
    24.2572  24.2572  24.4635  24.4635  24.5397  24.5397  24.6536  24.6536
    24.7093  24.7093  24.8219  24.8219  24.8930  24.8930  25.1326  25.1326
    25.1987  25.1987

     occupation numbers 
     1.0000   1.0000   1.0000   1.0000   1.0000   1.0000   1.0000   1.0000
     1.0000   1.0000   1.0000   1.0000   1.0000   1.0000   1.0000   1.0000
     1.0000   1.0000   1.0000   1.0000   1.0000   1.0000   1.0000   1.0000
     1.0000   1.0000   1.0000   1.0000   1.0000   1.0000   1.0000   1.0000
     1.0000   1.0000   1.0000   1.0000   1.0000   1.0000   1.0000   1.0000
     1.0000   1.0000   1.0000   1.0000   1.0000   1.0000   1.0000   1.0000
     1.0000   1.0000   1.0000   1.0000   1.0000   1.0000   1.0000   1.0000
    -0.0000  -0.0000  -0.0000  -0.0000  -0.0000  -0.0000  -0.0000  -0.0000
    -0.0000  -0.0000  -0.0000  -0.0000  -0.0000  -0.0000  -0.0000  -0.0000
    -0.0000  -0.0000

          k = 0.2500 0.1216 0.1440 (  6526 PWs)   bands (ev):

   -19.2846 -19.2846 -19.0729 -19.0729 -18.6762 -18.6762 -18.6069 -18.6069
    -1.6915  -1.6915  -1.5858  -1.5858  -1.2091  -1.2091  -0.7163  -0.7163
     5.7635   5.7635   6.0588   6.0588   6.6001   6.6001   7.3063   7.3063
     7.4823   7.4823   8.0454   8.0454   8.9014   8.9014   9.6111   9.6111
    21.2947  21.2947  21.4809  21.4809  21.5831  21.5831  21.8846  21.8846
    22.5252  22.5252  23.0346  23.0346  23.1652  23.1652  23.3109  23.3109
    23.4188  23.4188  23.6216  23.6216  23.8570  23.8570  23.9469  23.9469
    24.0737  24.0737  24.3545  24.3545  24.4063  24.4063  24.6231  24.6231
    24.6277  24.6277  24.8963  24.8963  24.9695  24.9695  25.1288  25.1288
    25.1388  25.1389

     occupation numbers 
     1.0000   1.0000   1.0000   1.0000   1.0000   1.0000   1.0000   1.0000
     1.0000   1.0000   1.0000   1.0000   1.0000   1.0000   1.0000   1.0000
     1.0000   1.0000   1.0000   1.0000   1.0000   1.0000   1.0000   1.0000
     1.0000   1.0000   1.0000   1.0000   1.0000   1.0000   1.0000   1.0000
     1.0000   1.0000   1.0000   1.0000   1.0000   1.0000   1.0000   1.0000
     1.0000   1.0000   1.0000   1.0000   1.0000   1.0000   1.0000   1.0000
     1.0000   1.0000   1.0000   1.0000   1.0000   1.0000   1.0000   1.0000
     0.1681   0.1680  -0.0000  -0.0000  -0.0000  -0.0000  -0.0000  -0.0000
    -0.0000  -0.0000  -0.0000  -0.0000  -0.0000  -0.0000  -0.0000  -0.0000
    -0.0000  -0.0000

          k = 0.2500 0.1216-0.2880 (  6526 PWs)   bands (ev):

   -18.9912 -18.9912 -18.9889 -18.9889 -18.8454 -18.8454 -18.8436 -18.8436
    -1.4799  -1.4799  -1.4497  -1.4497  -1.1247  -1.1247  -1.1200  -1.1200
     5.8956   5.8956   6.1810   6.1810   6.6896   6.6896   6.9452   6.9452
     8.2138   8.2139   8.4781   8.4781   8.5203   8.5203   8.7925   8.7925
    21.4645  21.4645  21.4705  21.4705  21.7272  21.7272  21.8725  21.8725
    22.6239  22.6239  22.7615  22.7615  22.8798  22.8798  22.9435  22.9435
    23.7297  23.7297  23.7522  23.7522  23.9606  23.9606  23.9636  23.9636
    24.0292  24.0292  24.0924  24.0924  24.3680  24.3680  24.4374  24.4374
    24.8049  24.8049  24.8311  24.8311  24.8975  24.8975  25.0000  25.0000
    25.4797  25.4798

     occupation numbers 
     1.0000   1.0000   1.0000   1.0000   1.0000   1.0000   1.0000   1.0000
     1.0000   1.0000   1.0000   1.0000   1.0000   1.0000   1.0000   1.0000
     1.0000   1.0000   1.0000   1.0000   1.0000   1.0000   1.0000   1.0000
     1.0000   1.0000   1.0000   1.0000   1.0000   1.0000   1.0000   1.0000
     1.0000   1.0000   1.0000   1.0000   1.0000   1.0000   1.0000   1.0000
     1.0000   1.0000   1.0000   1.0000   1.0000   1.0000   1.0000   1.0000
     1.0000   1.0000   1.0000   1.0000   1.0000   1.0000   1.0000   1.0000
     1.0354   1.0354  -0.0335  -0.0335  -0.0000  -0.0000  -0.0000  -0.0000
    -0.0000  -0.0000  -0.0000  -0.0000  -0.0000  -0.0000  -0.0000  -0.0000
    -0.0000  -0.0000

          k = 0.2500-0.2431 0.0000 (  6506 PWs)   bands (ev):

   -19.2888 -19.2888 -19.2879 -19.2879 -18.5193 -18.5193 -18.5179 -18.5179
    -1.7901  -1.7901  -1.7891  -1.7891  -0.8276  -0.8276  -0.8266  -0.8266
     5.7942   5.7942   5.7966   5.7966   6.9488   6.9488   6.9519   6.9519
     7.6198   7.6198   7.6200   7.6200   9.4923   9.4923   9.4964   9.4964
    21.5460  21.5460  21.5491  21.5491  21.9698  21.9698  21.9748  21.9748
    22.3905  22.3905  22.3934  22.3934  22.9325  22.9325  22.9368  22.9368
    23.6443  23.6443  23.6470  23.6470  24.0902  24.0902  24.0903  24.0903
    24.3006  24.3006  24.3008  24.3008  24.5707  24.5707  24.5716  24.5716
    24.8392  24.8392  24.8401  24.8401  25.0346  25.0347  25.0361  25.0361
    25.2293  25.2298

     occupation numbers 
     1.0000   1.0000   1.0000   1.0000   1.0000   1.0000   1.0000   1.0000
     1.0000   1.0000   1.0000   1.0000   1.0000   1.0000   1.0000   1.0000
     1.0000   1.0000   1.0000   1.0000   1.0000   1.0000   1.0000   1.0000
     1.0000   1.0000   1.0000   1.0000   1.0000   1.0000   1.0000   1.0000
     1.0000   1.0000   1.0000   1.0000   1.0000   1.0000   1.0000   1.0000
     1.0000   1.0000   1.0000   1.0000   1.0000   1.0000   1.0000   1.0000
     1.0000   1.0000   1.0000   1.0000  -0.0290  -0.0290  -0.0292  -0.0292
    -0.0000  -0.0000  -0.0000  -0.0000  -0.0000  -0.0000  -0.0000  -0.0000
    -0.0000  -0.0000  -0.0000  -0.0000  -0.0000  -0.0000  -0.0000  -0.0000
    -0.0000  -0.0000

          k = 0.2500-0.2431 0.1440 (  6534 PWs)   bands (ev):

   -19.1829 -19.1829 -19.1823 -19.1823 -18.6394 -18.6394 -18.6384 -18.6384
    -1.6432  -1.6432  -1.6425  -1.6425  -0.9587  -0.9587  -0.9578  -0.9578
     5.9578   5.9579   5.9601   5.9602   6.9951   6.9953   6.9959   6.9960
     7.5831   7.5833   7.5861   7.5863   9.3140   9.3143   9.3165   9.3168
    21.2862  21.2862  21.2886  21.2886  22.0035  22.0035  22.0052  22.0052
    22.4889  22.4890  22.4930  22.4930  22.9314  22.9315  22.9343  22.9344
    23.8431  23.8431  23.8439  23.8439  24.0436  24.0437  24.0450  24.0451
    24.1729  24.1730  24.1732  24.1733  24.6616  24.6617  24.6622  24.6623
    24.8664  24.8666  24.8672  24.8674  25.0124  25.0125  25.0136  25.0136
    25.1187  25.1191

     occupation numbers 
     1.0000   1.0000   1.0000   1.0000   1.0000   1.0000   1.0000   1.0000
     1.0000   1.0000   1.0000   1.0000   1.0000   1.0000   1.0000   1.0000
     1.0000   1.0000   1.0000   1.0000   1.0000   1.0000   1.0000   1.0000
     1.0000   1.0000   1.0000   1.0000   1.0000   1.0000   1.0000   1.0000
     1.0000   1.0000   1.0000   1.0000   1.0000   1.0000   1.0000   1.0000
     1.0000   1.0000   1.0000   1.0000   1.0000   1.0000   1.0000   1.0000
     1.0000   1.0000   1.0000   1.0000   0.9493   0.9478   0.9296   0.9279
    -0.0000  -0.0000  -0.0000  -0.0000  -0.0000  -0.0000  -0.0000  -0.0000
    -0.0000  -0.0000  -0.0000  -0.0000  -0.0000  -0.0000  -0.0000  -0.0000
    -0.0000  -0.0000

          k = 0.2500-0.2431-0.2880 (  6512 PWs)   bands (ev):

   -18.9191 -18.9191 -18.9188 -18.9188 -18.9170 -18.9170 -18.9167 -18.9167
    -1.3007  -1.3007  -1.2997  -1.2997  -1.2872  -1.2872  -1.2863  -1.2862
     6.3890   6.3891   6.3907   6.3909   6.4589   6.4591   6.4603   6.4605
     8.4543   8.4545   8.4570   8.4572   8.5120   8.5122   8.5145   8.5147
    21.8071  21.8072  21.8097  21.8098  21.8899  21.8900  21.8929  21.8930
    22.4160  22.4161  22.4166  22.4167  22.5896  22.5897  22.5906  22.5907
    23.8225  23.8225  23.8248  23.8248  23.9031  23.9032  23.9054  23.9055
    24.4092  24.4092  24.4107  24.4108  24.4796  24.4797  24.4814  24.4815
    24.7420  24.7421  24.7434  24.7435  24.8220  24.8220  24.8230  24.8230
    25.4272  25.4275

     occupation numbers 
     1.0000   1.0000   1.0000   1.0000   1.0000   1.0000   1.0000   1.0000
     1.0000   1.0000   1.0000   1.0000   1.0000   1.0000   1.0000   1.0000
     1.0000   1.0000   1.0000   1.0000   1.0000   1.0000   1.0000   1.0000
     1.0000   1.0000   1.0000   1.0000   1.0000   1.0000   1.0000   1.0000
     1.0000   1.0000   1.0000   1.0000   1.0000   1.0000   1.0000   1.0000
     1.0000   1.0000   1.0000   1.0000   1.0000   1.0000   1.0000   1.0000
     1.0000   1.0000   1.0000   1.0000   1.0000   1.0000   1.0000   1.0000
    -0.0000  -0.0000  -0.0000  -0.0000  -0.0000  -0.0000  -0.0000  -0.0000
    -0.0000  -0.0000  -0.0000  -0.0000  -0.0000  -0.0000  -0.0000  -0.0000
    -0.0000  -0.0000

          k =-0.5000 0.0000 0.0000 (  6500 PWs)   bands (ev):

   -18.9968 -18.9968 -18.9960 -18.9960 -18.2497 -18.2497 -18.2482 -18.2482
    -2.0411  -2.0411  -2.0403  -2.0403  -1.4835  -1.4835  -1.4831  -1.4831
     5.4173   5.4173   5.4184   5.4184   6.1212   6.1212   6.1221   6.1221
     7.0748   7.0748   7.0759   7.0759   9.5069   9.5069   9.5114   9.5114
    19.9172  19.9172  19.9221  19.9221  22.1341  22.1341  22.1365  22.1365
    22.5893  22.5893  22.5910  22.5910  22.9012  22.9012  22.9020  22.9020
    23.1144  23.1144  23.1159  23.1159  23.4654  23.4654  23.4675  23.4675
    24.2364  24.2364  24.2369  24.2369  24.3549  24.3549  24.3565  24.3565
    24.6355  24.6355  24.6380  24.6380  25.2365  25.2365  25.2370  25.2370
    25.3909  25.3915

     occupation numbers 
     1.0000   1.0000   1.0000   1.0000   1.0000   1.0000   1.0000   1.0000
     1.0000   1.0000   1.0000   1.0000   1.0000   1.0000   1.0000   1.0000
     1.0000   1.0000   1.0000   1.0000   1.0000   1.0000   1.0000   1.0000
     1.0000   1.0000   1.0000   1.0000   1.0000   1.0000   1.0000   1.0000
     1.0000   1.0000   1.0000   1.0000   1.0000   1.0000   1.0000   1.0000
     1.0000   1.0000   1.0000   1.0000   1.0000   1.0000   1.0000   1.0000
     1.0000   1.0000   1.0000   1.0000   1.0000   1.0000   1.0000   1.0000
    -0.0000  -0.0000  -0.0000  -0.0000  -0.0000  -0.0000  -0.0000  -0.0000
    -0.0000  -0.0000  -0.0000  -0.0000  -0.0000  -0.0000  -0.0000  -0.0000
    -0.0000  -0.0000

          k =-0.5000 0.0000 0.1440 (  6518 PWs)   bands (ev):

   -18.8937 -18.8937 -18.8932 -18.8932 -18.3660 -18.3660 -18.3648 -18.3648
    -1.9442  -1.9441  -1.9436  -1.9436  -1.5463  -1.5463  -1.5459  -1.5459
     5.3945   5.3946   5.3963   5.3964   6.0072   6.0073   6.0079   6.0080
     7.4231   7.4233   7.4247   7.4249   9.2699   9.2703   9.2731   9.2736
    20.4476  20.4476  20.4511  20.4512  21.8144  21.8145  21.8172  21.8172
    22.6418  22.6418  22.6439  22.6439  22.7690  22.7692  22.7721  22.7722
    23.0881  23.0882  23.0888  23.0889  23.2524  23.2528  23.2531  23.2535
    24.0326  24.0326  24.0343  24.0344  24.3039  24.3039  24.3061  24.3061
    24.9212  24.9213  24.9230  24.9231  25.3353  25.3354  25.3360  25.3361
    25.4217  25.4222

     occupation numbers 
     1.0000   1.0000   1.0000   1.0000   1.0000   1.0000   1.0000   1.0000
     1.0000   1.0000   1.0000   1.0000   1.0000   1.0000   1.0000   1.0000
     1.0000   1.0000   1.0000   1.0000   1.0000   1.0000   1.0000   1.0000
     1.0000   1.0000   1.0000   1.0000   1.0000   1.0000   1.0000   1.0000
     1.0000   1.0000   1.0000   1.0000   1.0000   1.0000   1.0000   1.0000
     1.0000   1.0000   1.0000   1.0000   1.0000   1.0000   1.0000   1.0000
     1.0000   1.0000   1.0000   1.0000   1.0000   1.0000   1.0000   1.0000
     1.0313   1.0312   1.0264   1.0262  -0.0000  -0.0000  -0.0000  -0.0000
    -0.0000  -0.0000  -0.0000  -0.0000  -0.0000  -0.0000  -0.0000  -0.0000
    -0.0000  -0.0000

          k =-0.5000 0.0000-0.2880 (  6492 PWs)   bands (ev):

   -18.6373 -18.6373 -18.6369 -18.6369 -18.6354 -18.6354 -18.6350 -18.6350
    -1.7441  -1.7441  -1.7441  -1.7441  -1.7122  -1.7122  -1.7122  -1.7122
     5.4318   5.4318   5.4318   5.4318   5.7999   5.7999   5.7999   5.7999
     8.1900   8.1900   8.1900   8.1900   8.6382   8.6382   8.6382   8.6382
    21.1314  21.1314  21.1314  21.1314  21.4894  21.4894  21.4894  21.4894
    22.5940  22.5940  22.5940  22.5940  22.7593  22.7593  22.7593  22.7593
    23.3645  23.3645  23.3645  23.3645  23.3951  23.3951  23.3951  23.3951
    23.7031  23.7031  23.7032  23.7032  23.7241  23.7241  23.7241  23.7241
    25.2946  25.2946  25.2947  25.2947  25.3552  25.3552  25.3553  25.3553
    25.5286  25.5286

     occupation numbers 
     1.0000   1.0000   1.0000   1.0000   1.0000   1.0000   1.0000   1.0000
     1.0000   1.0000   1.0000   1.0000   1.0000   1.0000   1.0000   1.0000
     1.0000   1.0000   1.0000   1.0000   1.0000   1.0000   1.0000   1.0000
     1.0000   1.0000   1.0000   1.0000   1.0000   1.0000   1.0000   1.0000
     1.0000   1.0000   1.0000   1.0000   1.0000   1.0000   1.0000   1.0000
     1.0000   1.0000   1.0000   1.0000   1.0000   1.0000   1.0000   1.0000
     1.0000   1.0000   1.0000   1.0000   1.0000   1.0000   1.0000   1.0000
     1.0000   1.0000   1.0000   1.0000   1.0000   1.0000   1.0000   1.0000
    -0.0000  -0.0000  -0.0000  -0.0000  -0.0000  -0.0000  -0.0000  -0.0000
    -0.0000  -0.0000

          k =-0.5000 0.1216 0.0000 (  6496 PWs)   bands (ev):

   -18.9964 -18.9963 -18.9956 -18.9956 -18.2498 -18.2498 -18.2483 -18.2483
    -2.0398  -2.0398  -2.0390  -2.0390  -1.5053  -1.5053  -1.5049  -1.5049
     5.4397   5.4398   5.4414   5.4415   6.1104   6.1109   6.1110   6.1116
     7.1081   7.1086   7.1091   7.1096   9.6049   9.6052   9.6089   9.6093
    19.9801  19.9801  19.9844  19.9844  21.1939  21.1940  21.1950  21.1951
    21.7377  21.7378  21.7399  21.7399  23.0271  23.0271  23.0307  23.0307
    23.5943  23.5943  23.5951  23.5951  23.6885  23.6886  23.6898  23.6899
    23.9228  23.9232  23.9236  23.9240  24.4845  24.4845  24.4848  24.4848
    24.7245  24.7245  24.7253  24.7254  25.2660  25.2660  25.2668  25.2668
    25.3757  25.3761

     occupation numbers 
     1.0000   1.0000   1.0000   1.0000   1.0000   1.0000   1.0000   1.0000
     1.0000   1.0000   1.0000   1.0000   1.0000   1.0000   1.0000   1.0000
     1.0000   1.0000   1.0000   1.0000   1.0000   1.0000   1.0000   1.0000
     1.0000   1.0000   1.0000   1.0000   1.0000   1.0000   1.0000   1.0000
     1.0000   1.0000   1.0000   1.0000   1.0000   1.0000   1.0000   1.0000
     1.0000   1.0000   1.0000   1.0000   1.0000   1.0000   1.0000   1.0000
     1.0000   1.0000   1.0000   1.0000   1.0000   1.0000   1.0000   1.0000
     1.0000   1.0000   1.0000   1.0000  -0.0000  -0.0000  -0.0000  -0.0000
    -0.0000  -0.0000  -0.0000  -0.0000  -0.0000  -0.0000  -0.0000  -0.0000
    -0.0000  -0.0000

          k =-0.5000 0.1216 0.1440 (  6510 PWs)   bands (ev):

   -18.8933 -18.8933 -18.8929 -18.8929 -18.3660 -18.3660 -18.3649 -18.3649
    -1.9477  -1.9477  -1.9471  -1.9471  -1.5637  -1.5637  -1.5633  -1.5633
     5.4297   5.4298   5.4316   5.4317   5.9782   5.9785   5.9789   5.9792
     7.4817   7.4823   7.4829   7.4834   9.3475   9.3478   9.3504   9.3508
    20.1515  20.1516  20.1539  20.1539  21.2011  21.2012  21.2029  21.2030
    22.0380  22.0381  22.0399  22.0401  22.7812  22.7813  22.7845  22.7846
    23.3406  23.3407  23.3423  23.3424  23.7332  23.7333  23.7336  23.7337
    23.8627  23.8628  23.8637  23.8638  24.4667  24.4669  24.4670  24.4673
    24.8976  24.8978  24.8982  24.8983  25.3340  25.3341  25.3345  25.3345
    25.4404  25.4413

     occupation numbers 
     1.0000   1.0000   1.0000   1.0000   1.0000   1.0000   1.0000   1.0000
     1.0000   1.0000   1.0000   1.0000   1.0000   1.0000   1.0000   1.0000
     1.0000   1.0000   1.0000   1.0000   1.0000   1.0000   1.0000   1.0000
     1.0000   1.0000   1.0000   1.0000   1.0000   1.0000   1.0000   1.0000
     1.0000   1.0000   1.0000   1.0000   1.0000   1.0000   1.0000   1.0000
     1.0000   1.0000   1.0000   1.0000   1.0000   1.0000   1.0000   1.0000
     1.0000   1.0000   1.0000   1.0000   1.0000   1.0000   1.0000   1.0000
     1.0000   1.0000   1.0000   1.0000  -0.0000  -0.0000  -0.0000  -0.0000
    -0.0000  -0.0000  -0.0000  -0.0000  -0.0000  -0.0000  -0.0000  -0.0000
    -0.0000  -0.0000

          k =-0.5000 0.1216-0.2880 (  6508 PWs)   bands (ev):

   -18.6371 -18.6371 -18.6368 -18.6368 -18.6352 -18.6352 -18.6348 -18.6348
    -1.7503  -1.7503  -1.7503  -1.7503  -1.7279  -1.7279  -1.7279  -1.7279
     5.4962   5.4962   5.4962   5.4962   5.7537   5.7537   5.7537   5.7537
     8.3146   8.3146   8.3146   8.3146   8.6308   8.6308   8.6308   8.6308
    20.7322  20.7322  20.7322  20.7322  20.9494  20.9494  20.9494  20.9494
    22.3872  22.3872  22.3872  22.3872  22.4957  22.4957  22.4957  22.4957
    23.3182  23.3182  23.3183  23.3183  23.3333  23.3333  23.3333  23.3333
    24.1165  24.1166  24.1167  24.1167  24.1263  24.1264  24.1264  24.1265
    25.2178  25.2179  25.2179  25.2179  25.2313  25.2314  25.2314  25.2314
    25.6616  25.6672

     occupation numbers 
     1.0000   1.0000   1.0000   1.0000   1.0000   1.0000   1.0000   1.0000
     1.0000   1.0000   1.0000   1.0000   1.0000   1.0000   1.0000   1.0000
     1.0000   1.0000   1.0000   1.0000   1.0000   1.0000   1.0000   1.0000
     1.0000   1.0000   1.0000   1.0000   1.0000   1.0000   1.0000   1.0000
     1.0000   1.0000   1.0000   1.0000   1.0000   1.0000   1.0000   1.0000
     1.0000   1.0000   1.0000   1.0000   1.0000   1.0000   1.0000   1.0000
     1.0000   1.0000   1.0000   1.0000   1.0000   1.0000   1.0000   1.0000
    -0.0078  -0.0077  -0.0076  -0.0076  -0.0020  -0.0020  -0.0020  -0.0020
    -0.0000  -0.0000  -0.0000  -0.0000  -0.0000  -0.0000  -0.0000  -0.0000
    -0.0000  -0.0000

          k =-0.5000-0.2431 0.0000 (  6504 PWs)   bands (ev):

   -18.9959 -18.9959 -18.9953 -18.9953 -18.2500 -18.2500 -18.2485 -18.2485
    -2.0382  -2.0382  -2.0373  -2.0373  -1.5273  -1.5273  -1.5269  -1.5269
     5.4588   5.4588   5.4612   5.4612   6.1036   6.1036   6.1049   6.1049
     7.1430   7.1430   7.1441   7.1441   9.7044   9.7044   9.7080   9.7080
    20.0411  20.0411  20.0447  20.0447  20.8639  20.8639  20.8656  20.8656
    20.8839  20.8839  20.8840  20.8840  23.3090  23.3090  23.3097  23.3097
    23.4352  23.4352  23.4391  23.4391  23.7410  23.7410  23.7422  23.7422
    23.7968  23.7968  23.7979  23.7979  24.6281  24.6281  24.6288  24.6288
    24.7118  24.7118  24.7119  24.7119  25.3450  25.3451  25.3464  25.3464
    25.3813  25.3814

     occupation numbers 
     1.0000   1.0000   1.0000   1.0000   1.0000   1.0000   1.0000   1.0000
     1.0000   1.0000   1.0000   1.0000   1.0000   1.0000   1.0000   1.0000
     1.0000   1.0000   1.0000   1.0000   1.0000   1.0000   1.0000   1.0000
     1.0000   1.0000   1.0000   1.0000   1.0000   1.0000   1.0000   1.0000
     1.0000   1.0000   1.0000   1.0000   1.0000   1.0000   1.0000   1.0000
     1.0000   1.0000   1.0000   1.0000   1.0000   1.0000   1.0000   1.0000
     1.0000   1.0000   1.0000   1.0000   1.0000   1.0000   1.0000   1.0000
     1.0000   1.0000   1.0000   1.0000  -0.0000  -0.0000  -0.0000  -0.0000
    -0.0000  -0.0000  -0.0000  -0.0000  -0.0000  -0.0000  -0.0000  -0.0000
    -0.0000  -0.0000

          k =-0.5000-0.2431 0.1440 (  6504 PWs)   bands (ev):

   -18.8929 -18.8929 -18.8925 -18.8925 -18.3661 -18.3661 -18.3650 -18.3650
    -1.9510  -1.9510  -1.9504  -1.9504  -1.5811  -1.5811  -1.5808  -1.5807
     5.4642   5.4643   5.4662   5.4663   5.9517   5.9519   5.9524   5.9526
     7.5394   7.5395   7.5402   7.5403   9.4278   9.4280   9.4304   9.4306
    19.8481  19.8481  19.8499  19.8499  20.6987  20.6987  20.6996  20.6996
    21.7463  21.7465  21.7473  21.7475  23.1409  23.1410  23.1436  23.1437
    23.3297  23.3298  23.3320  23.3321  23.5077  23.5078  23.5082  23.5082
    23.9968  23.9968  23.9973  23.9973  24.6092  24.6093  24.6095  24.6096
    24.8223  24.8224  24.8228  24.8228  25.3310  25.3311  25.3317  25.3318
    25.5042  25.5051

     occupation numbers 
     1.0000   1.0000   1.0000   1.0000   1.0000   1.0000   1.0000   1.0000
     1.0000   1.0000   1.0000   1.0000   1.0000   1.0000   1.0000   1.0000
     1.0000   1.0000   1.0000   1.0000   1.0000   1.0000   1.0000   1.0000
     1.0000   1.0000   1.0000   1.0000   1.0000   1.0000   1.0000   1.0000
     1.0000   1.0000   1.0000   1.0000   1.0000   1.0000   1.0000   1.0000
     1.0000   1.0000   1.0000   1.0000   1.0000   1.0000   1.0000   1.0000
     1.0000   1.0000   1.0000   1.0000   1.0000   1.0000   1.0000   1.0000
     1.0019   1.0019   1.0020   1.0020  -0.0000  -0.0000  -0.0000  -0.0000
    -0.0000  -0.0000  -0.0000  -0.0000  -0.0000  -0.0000  -0.0000  -0.0000
    -0.0000  -0.0000

          k =-0.5000-0.2431-0.2880 (  6528 PWs)   bands (ev):

   -18.6369 -18.6369 -18.6366 -18.6366 -18.6350 -18.6350 -18.6347 -18.6347
    -1.7504  -1.7504  -1.7504  -1.7504  -1.7496  -1.7496  -1.7495  -1.7495
     5.6333   5.6333   5.6341   5.6341   5.6341   5.6341   5.6349   5.6349
     8.5303   8.5303   8.5308   8.5308   8.5340   8.5340   8.5346   8.5346
    20.4276  20.4276  20.4284  20.4284  20.4290  20.4290  20.4298  20.4298
    22.2583  22.2583  22.2592  22.2592  22.2593  22.2593  22.2602  22.2602
    23.4074  23.4074  23.4078  23.4078  23.4084  23.4084  23.4088  23.4088
    24.3201  24.3201  24.3205  24.3205  24.3218  24.3218  24.3223  24.3223
    25.1192  25.1192  25.1196  25.1196  25.1201  25.1201  25.1205  25.1205
    25.6671  25.6680

     occupation numbers 
     1.0000   1.0000   1.0000   1.0000   1.0000   1.0000   1.0000   1.0000
     1.0000   1.0000   1.0000   1.0000   1.0000   1.0000   1.0000   1.0000
     1.0000   1.0000   1.0000   1.0000   1.0000   1.0000   1.0000   1.0000
     1.0000   1.0000   1.0000   1.0000   1.0000   1.0000   1.0000   1.0000
     1.0000   1.0000   1.0000   1.0000   1.0000   1.0000   1.0000   1.0000
     1.0000   1.0000   1.0000   1.0000   1.0000   1.0000   1.0000   1.0000
     1.0000   1.0000   1.0000   1.0000   1.0000   1.0000   1.0000   1.0000
    -0.0000  -0.0000  -0.0000  -0.0000  -0.0000  -0.0000  -0.0000  -0.0000
    -0.0000  -0.0000  -0.0000  -0.0000  -0.0000  -0.0000  -0.0000  -0.0000
    -0.0000  -0.0000

          k = 0.0000-0.1216 0.1440 (  6532 PWs)   bands (ev):

   -19.5863 -19.5863 -19.3026 -19.3026 -18.9463 -18.9463 -18.8517 -18.8517
    -1.5530  -1.5530  -1.3988  -1.3988  -0.9386  -0.9386  -0.1542  -0.1542
     5.7521   5.7521   6.2073   6.2073   6.9383   6.9383   8.8095   8.8095
     9.0619   9.0619   9.6412   9.6412   9.8378   9.8378  10.3478  10.3478
    20.9857  20.9858  21.1859  21.1859  21.5704  21.5704  21.6081  21.6081
    22.1963  22.1963  22.5785  22.5785  22.7437  22.7437  23.0644  23.0644
    23.3192  23.3192  23.8489  23.8489  24.0924  24.0924  24.2231  24.2231
    24.5539  24.5539  24.6606  24.6606  24.7238  24.7238  24.7742  24.7742
    24.8354  24.8354  24.9411  24.9411  24.9474  24.9474  25.1465  25.1465
    25.1588  25.1589

     occupation numbers 
     1.0000   1.0000   1.0000   1.0000   1.0000   1.0000   1.0000   1.0000
     1.0000   1.0000   1.0000   1.0000   1.0000   1.0000   1.0000   1.0000
     1.0000   1.0000   1.0000   1.0000   1.0000   1.0000   1.0000   1.0000
     1.0000   1.0000   1.0000   1.0000   1.0000   1.0000   1.0000   1.0000
     1.0000   1.0000   1.0000   1.0000   1.0000   1.0000   1.0000   1.0000
     1.0000   1.0000   1.0000   1.0000   1.0000   1.0000   1.0000   1.0000
     1.0000   1.0000   1.0000   1.0000  -0.0337  -0.0337  -0.0000  -0.0000
    -0.0000  -0.0000  -0.0000  -0.0000  -0.0000  -0.0000  -0.0000  -0.0000
    -0.0000  -0.0000  -0.0000  -0.0000  -0.0000  -0.0000  -0.0000  -0.0000
    -0.0000  -0.0000

          k =-0.2500 0.0000 0.1440 (  6537 PWs)   bands (ev):

   -19.3251 -19.3251 -19.0244 -19.0244 -18.6928 -18.6928 -18.5960 -18.5960
    -1.7045  -1.7045  -1.5616  -1.5616  -1.3205  -1.3205  -0.6167  -0.6167
     5.6395   5.6395   6.0938   6.0938   6.4479   6.4479   7.2905   7.2905
     7.7128   7.7128   8.2664   8.2664   8.6819   8.6819   9.6931   9.6931
    21.6057  21.6057  21.7041  21.7041  21.7511  21.7511  21.9097  21.9097
    22.1459  22.1459  22.4159  22.4160  23.0290  23.0290  23.2308  23.2308
    23.2505  23.2505  23.8074  23.8074  23.8637  23.8637  23.9711  23.9711
    24.2459  24.2459  24.3932  24.3932  24.4254  24.4254  24.5289  24.5289
    24.7469  24.7469  24.9609  24.9609  24.9680  24.9680  25.1701  25.1701
    25.2076  25.2076

     occupation numbers 
     1.0000   1.0000   1.0000   1.0000   1.0000   1.0000   1.0000   1.0000
     1.0000   1.0000   1.0000   1.0000   1.0000   1.0000   1.0000   1.0000
     1.0000   1.0000   1.0000   1.0000   1.0000   1.0000   1.0000   1.0000
     1.0000   1.0000   1.0000   1.0000   1.0000   1.0000   1.0000   1.0000
     1.0000   1.0000   1.0000   1.0000   1.0000   1.0000   1.0000   1.0000
     1.0000   1.0000   1.0000   1.0000   1.0000   1.0000   1.0000   1.0000
     1.0000   1.0000   1.0000   1.0000   1.0000   1.0000   1.0000   1.0000
    -0.0000  -0.0000  -0.0000  -0.0000  -0.0000  -0.0000  -0.0000  -0.0000
    -0.0000  -0.0000  -0.0000  -0.0000  -0.0000  -0.0000  -0.0000  -0.0000
    -0.0000  -0.0000

          k =-0.2500 0.1216 0.0000 (  6519 PWs)   bands (ev):

   -19.4016 -19.4016 -19.1650 -19.1650 -18.5398 -18.5398 -18.5055 -18.5055
    -1.7947  -1.7947  -1.7715  -1.7715  -1.1015  -1.1015  -0.5652  -0.5652
     5.7462   5.7462   5.8775   5.8775   6.4099   6.4099   7.2617   7.2617
     7.6199   7.6199   8.0156   8.0156   8.7637   8.7637  10.1128  10.1128
    21.2458  21.2458  21.4583  21.4583  21.5857  21.5857  21.9347  21.9347
    22.6913  22.6913  23.0655  23.0655  23.1811  23.1811  23.2099  23.2099
    23.3887  23.3887  23.5742  23.5742  23.8835  23.8835  23.9050  23.9050
    24.2572  24.2572  24.4635  24.4635  24.5397  24.5397  24.6536  24.6536
    24.7093  24.7093  24.8219  24.8219  24.8930  24.8930  25.1326  25.1326
    25.1987  25.1987

     occupation numbers 
     1.0000   1.0000   1.0000   1.0000   1.0000   1.0000   1.0000   1.0000
     1.0000   1.0000   1.0000   1.0000   1.0000   1.0000   1.0000   1.0000
     1.0000   1.0000   1.0000   1.0000   1.0000   1.0000   1.0000   1.0000
     1.0000   1.0000   1.0000   1.0000   1.0000   1.0000   1.0000   1.0000
     1.0000   1.0000   1.0000   1.0000   1.0000   1.0000   1.0000   1.0000
     1.0000   1.0000   1.0000   1.0000   1.0000   1.0000   1.0000   1.0000
     1.0000   1.0000   1.0000   1.0000   1.0000   1.0000   1.0000   1.0000
    -0.0000  -0.0000  -0.0000  -0.0000  -0.0000  -0.0000  -0.0000  -0.0000
    -0.0000  -0.0000  -0.0000  -0.0000  -0.0000  -0.0000  -0.0000  -0.0000
    -0.0000  -0.0000

          k =-0.2500-0.1216 0.1440 (  6526 PWs)   bands (ev):

   -19.2846 -19.2846 -19.0729 -19.0729 -18.6762 -18.6762 -18.6068 -18.6068
    -1.6916  -1.6916  -1.5857  -1.5857  -1.2091  -1.2091  -0.7163  -0.7163
     5.7638   5.7638   6.0588   6.0588   6.5992   6.5992   7.3071   7.3071
     7.4822   7.4822   8.0457   8.0457   8.9016   8.9016   9.6107   9.6107
    21.2955  21.2955  21.4795  21.4795  21.5837  21.5837  21.8851  21.8851
    22.5246  22.5246  23.0344  23.0344  23.1650  23.1650  23.3116  23.3116
    23.4183  23.4183  23.6206  23.6206  23.8579  23.8579  23.9475  23.9475
    24.0744  24.0744  24.3549  24.3549  24.4062  24.4062  24.6220  24.6220
    24.6279  24.6279  24.8962  24.8962  24.9704  24.9704  25.1286  25.1287
    25.1387  25.1387

     occupation numbers 
     1.0000   1.0000   1.0000   1.0000   1.0000   1.0000   1.0000   1.0000
     1.0000   1.0000   1.0000   1.0000   1.0000   1.0000   1.0000   1.0000
     1.0000   1.0000   1.0000   1.0000   1.0000   1.0000   1.0000   1.0000
     1.0000   1.0000   1.0000   1.0000   1.0000   1.0000   1.0000   1.0000
     1.0000   1.0000   1.0000   1.0000   1.0000   1.0000   1.0000   1.0000
     1.0000   1.0000   1.0000   1.0000   1.0000   1.0000   1.0000   1.0000
     1.0000   1.0000   1.0000   1.0000   1.0000   1.0000   1.0000   1.0000
     0.1529   0.1529  -0.0000  -0.0000  -0.0000  -0.0000  -0.0000  -0.0000
    -0.0000  -0.0000  -0.0000  -0.0000  -0.0000  -0.0000  -0.0000  -0.0000
    -0.0000  -0.0000

          k =-0.2500 0.1216-0.1440 (  6526 PWs)   bands (ev):

   -19.2846 -19.2846 -19.0729 -19.0729 -18.6762 -18.6762 -18.6068 -18.6068
    -1.6916  -1.6916  -1.5857  -1.5857  -1.2091  -1.2091  -0.7163  -0.7163
     5.7638   5.7638   6.0588   6.0588   6.5992   6.5992   7.3071   7.3071
     7.4822   7.4822   8.0457   8.0457   8.9016   8.9016   9.6107   9.6107
    21.2955  21.2955  21.4795  21.4795  21.5837  21.5837  21.8851  21.8851
    22.5246  22.5246  23.0344  23.0344  23.1650  23.1650  23.3116  23.3116
    23.4183  23.4183  23.6206  23.6206  23.8579  23.8579  23.9475  23.9475
    24.0744  24.0744  24.3549  24.3549  24.4062  24.4062  24.6220  24.6220
    24.6279  24.6279  24.8962  24.8962  24.9704  24.9704  25.1286  25.1287
    25.1387  25.1387

     occupation numbers 
     1.0000   1.0000   1.0000   1.0000   1.0000   1.0000   1.0000   1.0000
     1.0000   1.0000   1.0000   1.0000   1.0000   1.0000   1.0000   1.0000
     1.0000   1.0000   1.0000   1.0000   1.0000   1.0000   1.0000   1.0000
     1.0000   1.0000   1.0000   1.0000   1.0000   1.0000   1.0000   1.0000
     1.0000   1.0000   1.0000   1.0000   1.0000   1.0000   1.0000   1.0000
     1.0000   1.0000   1.0000   1.0000   1.0000   1.0000   1.0000   1.0000
     1.0000   1.0000   1.0000   1.0000   1.0000   1.0000   1.0000   1.0000
     0.1529   0.1529  -0.0000  -0.0000  -0.0000  -0.0000  -0.0000  -0.0000
    -0.0000  -0.0000  -0.0000  -0.0000  -0.0000  -0.0000  -0.0000  -0.0000
    -0.0000  -0.0000

          k = 0.2500-0.1216-0.1440 (  6526 PWs)   bands (ev):

   -19.2846 -19.2846 -19.0729 -19.0729 -18.6762 -18.6762 -18.6069 -18.6069
    -1.6915  -1.6915  -1.5858  -1.5858  -1.2091  -1.2091  -0.7163  -0.7163
     5.7635   5.7635   6.0588   6.0588   6.6001   6.6001   7.3063   7.3063
     7.4823   7.4823   8.0454   8.0454   8.9014   8.9014   9.6111   9.6111
    21.2947  21.2947  21.4809  21.4809  21.5831  21.5831  21.8846  21.8846
    22.5252  22.5252  23.0346  23.0346  23.1652  23.1652  23.3109  23.3109
    23.4188  23.4188  23.6216  23.6216  23.8570  23.8570  23.9469  23.9469
    24.0737  24.0737  24.3545  24.3545  24.4063  24.4063  24.6231  24.6231
    24.6277  24.6277  24.8963  24.8963  24.9695  24.9695  25.1288  25.1288
    25.1388  25.1389

     occupation numbers 
     1.0000   1.0000   1.0000   1.0000   1.0000   1.0000   1.0000   1.0000
     1.0000   1.0000   1.0000   1.0000   1.0000   1.0000   1.0000   1.0000
     1.0000   1.0000   1.0000   1.0000   1.0000   1.0000   1.0000   1.0000
     1.0000   1.0000   1.0000   1.0000   1.0000   1.0000   1.0000   1.0000
     1.0000   1.0000   1.0000   1.0000   1.0000   1.0000   1.0000   1.0000
     1.0000   1.0000   1.0000   1.0000   1.0000   1.0000   1.0000   1.0000
     1.0000   1.0000   1.0000   1.0000   1.0000   1.0000   1.0000   1.0000
     0.1681   0.1680  -0.0000  -0.0000  -0.0000  -0.0000  -0.0000  -0.0000
    -0.0000  -0.0000  -0.0000  -0.0000  -0.0000  -0.0000  -0.0000  -0.0000
    -0.0000  -0.0000

          k =-0.2500 0.1216 0.2880 (  6526 PWs)   bands (ev):

   -18.9912 -18.9912 -18.9889 -18.9889 -18.8454 -18.8454 -18.8436 -18.8436
    -1.4799  -1.4799  -1.4497  -1.4497  -1.1247  -1.1247  -1.1200  -1.1200
     5.8956   5.8956   6.1810   6.1810   6.6896   6.6896   6.9452   6.9452
     8.2138   8.2139   8.4781   8.4782   8.5203   8.5203   8.7925   8.7925
    21.4645  21.4645  21.4705  21.4705  21.7272  21.7272  21.8725  21.8725
    22.6239  22.6239  22.7615  22.7615  22.8798  22.8798  22.9435  22.9435
    23.7297  23.7297  23.7522  23.7522  23.9606  23.9606  23.9636  23.9636
    24.0292  24.0292  24.0924  24.0924  24.3680  24.3680  24.4374  24.4374
    24.8049  24.8049  24.8311  24.8311  24.8975  24.8975  25.0000  25.0000
    25.4797  25.4798

     occupation numbers 
     1.0000   1.0000   1.0000   1.0000   1.0000   1.0000   1.0000   1.0000
     1.0000   1.0000   1.0000   1.0000   1.0000   1.0000   1.0000   1.0000
     1.0000   1.0000   1.0000   1.0000   1.0000   1.0000   1.0000   1.0000
     1.0000   1.0000   1.0000   1.0000   1.0000   1.0000   1.0000   1.0000
     1.0000   1.0000   1.0000   1.0000   1.0000   1.0000   1.0000   1.0000
     1.0000   1.0000   1.0000   1.0000   1.0000   1.0000   1.0000   1.0000
     1.0000   1.0000   1.0000   1.0000   1.0000   1.0000   1.0000   1.0000
     1.0354   1.0354  -0.0335  -0.0335  -0.0000  -0.0000  -0.0000  -0.0000
    -0.0000  -0.0000  -0.0000  -0.0000  -0.0000  -0.0000  -0.0000  -0.0000
    -0.0000  -0.0000

          k =-0.2500 0.2431 0.1440 (  6534 PWs)   bands (ev):

   -19.1829 -19.1829 -19.1823 -19.1823 -18.6394 -18.6394 -18.6384 -18.6384
    -1.6432  -1.6432  -1.6425  -1.6425  -0.9587  -0.9587  -0.9578  -0.9578
     5.9578   5.9579   5.9601   5.9602   6.9951   6.9953   6.9959   6.9960
     7.5831   7.5833   7.5861   7.5863   9.3140   9.3143   9.3165   9.3168
    21.2862  21.2862  21.2886  21.2886  22.0035  22.0035  22.0052  22.0052
    22.4889  22.4890  22.4930  22.4930  22.9314  22.9315  22.9343  22.9344
    23.8431  23.8431  23.8439  23.8439  24.0436  24.0437  24.0450  24.0451
    24.1729  24.1730  24.1732  24.1733  24.6616  24.6617  24.6622  24.6623
    24.8664  24.8666  24.8672  24.8674  25.0124  25.0125  25.0136  25.0136
    25.1189  25.1197

     occupation numbers 
     1.0000   1.0000   1.0000   1.0000   1.0000   1.0000   1.0000   1.0000
     1.0000   1.0000   1.0000   1.0000   1.0000   1.0000   1.0000   1.0000
     1.0000   1.0000   1.0000   1.0000   1.0000   1.0000   1.0000   1.0000
     1.0000   1.0000   1.0000   1.0000   1.0000   1.0000   1.0000   1.0000
     1.0000   1.0000   1.0000   1.0000   1.0000   1.0000   1.0000   1.0000
     1.0000   1.0000   1.0000   1.0000   1.0000   1.0000   1.0000   1.0000
     1.0000   1.0000   1.0000   1.0000   0.9493   0.9478   0.9296   0.9279
    -0.0000  -0.0000  -0.0000  -0.0000  -0.0000  -0.0000  -0.0000  -0.0000
    -0.0000  -0.0000  -0.0000  -0.0000  -0.0000  -0.0000  -0.0000  -0.0000
    -0.0000  -0.0000

          k = 0.5000-0.1216 0.1440 (  6510 PWs)   bands (ev):

   -18.8933 -18.8933 -18.8929 -18.8929 -18.3660 -18.3660 -18.3649 -18.3649
    -1.9477  -1.9477  -1.9471  -1.9471  -1.5637  -1.5637  -1.5633  -1.5633
     5.4296   5.4297   5.4314   5.4315   5.9784   5.9786   5.9791   5.9793
     7.4817   7.4822   7.4828   7.4834   9.3475   9.3479   9.3505   9.3508
    20.1521  20.1522  20.1545  20.1545  21.2002  21.2004  21.2020  21.2022
    22.0397  22.0399  22.0417  22.0418  22.7793  22.7794  22.7826  22.7827
    23.3401  23.3402  23.3418  23.3420  23.7332  23.7332  23.7336  23.7336
    23.8631  23.8633  23.8641  23.8643  24.4668  24.4671  24.4672  24.4675
    24.8977  24.8978  24.8982  24.8983  25.3338  25.3338  25.3343  25.3343
    25.4409  25.4415

     occupation numbers 
     1.0000   1.0000   1.0000   1.0000   1.0000   1.0000   1.0000   1.0000
     1.0000   1.0000   1.0000   1.0000   1.0000   1.0000   1.0000   1.0000
     1.0000   1.0000   1.0000   1.0000   1.0000   1.0000   1.0000   1.0000
     1.0000   1.0000   1.0000   1.0000   1.0000   1.0000   1.0000   1.0000
     1.0000   1.0000   1.0000   1.0000   1.0000   1.0000   1.0000   1.0000
     1.0000   1.0000   1.0000   1.0000   1.0000   1.0000   1.0000   1.0000
     1.0000   1.0000   1.0000   1.0000   1.0000   1.0000   1.0000   1.0000
     1.0000   1.0000   1.0000   1.0000  -0.0000  -0.0000  -0.0000  -0.0000
    -0.0000  -0.0000  -0.0000  -0.0000  -0.0000  -0.0000  -0.0000  -0.0000
    -0.0000  -0.0000

     the Fermi energy is    24.0619 ev

!    total energy              =    -519.43518625 Ry
     Harris-Foulkes estimate   =    -519.43518625 Ry
     estimated scf accuracy    <          6.8E-12 Ry

     The total energy is the sum of the following terms:

     one-electron contribution =      45.42978551 Ry
     hartree contribution      =      36.59375417 Ry
     xc contribution           =    -167.50890108 Ry
     ewald contribution        =    -433.94984942 Ry
     smearing contrib. (-TS)   =       0.00002457 Ry

     convergence has been achieved in  27 iterations

     Writing output data file Uranium.save/

     init_run     :      3.64s CPU      3.77s WALL (       1 calls)
     electrons    :    195.73s CPU    200.48s WALL (       1 calls)

     Called by init_run:
     wfcinit      :      2.70s CPU      2.80s WALL (       1 calls)
     wfcinit:atom :      0.02s CPU      0.02s WALL (      36 calls)
     wfcinit:wfcr :      2.55s CPU      2.66s WALL (      36 calls)
     potinit      :      0.02s CPU      0.02s WALL (       1 calls)
     hinit0       :      0.28s CPU      0.29s WALL (       1 calls)

     Called by electrons:
     c_bands      :    145.70s CPU    148.16s WALL (      27 calls)
     sum_band     :     32.53s CPU     34.38s WALL (      27 calls)
     v_of_rho     :      0.09s CPU      0.09s WALL (      28 calls)
     v_h          :      0.00s CPU      0.00s WALL (      28 calls)
     v_xc         :      0.08s CPU      0.09s WALL (      28 calls)
     newd         :     17.88s CPU     18.31s WALL (      28 calls)
     mix_rho      :      0.09s CPU      0.09s WALL (      27 calls)

     Called by c_bands:
     init_us_2    :      0.80s CPU      0.81s WALL (    1980 calls)
     cegterg      :    134.82s CPU    137.25s WALL (     972 calls)

     Called by sum_band:
     sum_band:bec :     17.35s CPU     17.46s WALL (     972 calls)
     addusdens    :      2.79s CPU      3.94s WALL (      27 calls)

     Called by *egterg:
     h_psi        :     68.27s CPU     70.23s WALL (    4575 calls)
     s_psi        :     14.60s CPU     14.67s WALL (    4575 calls)
     g_psi        :      0.20s CPU      0.20s WALL (    3567 calls)
     cdiaghg      :     36.64s CPU     36.70s WALL (    4539 calls)
     cegterg:over :      7.45s CPU      7.83s WALL (    3567 calls)
     cegterg:upda :      4.69s CPU      4.70s WALL (    3567 calls)
     cegterg:last :      1.68s CPU      1.68s WALL (    1012 calls)

     Called by h_psi:
     h_psi:pot    :     67.78s CPU     69.74s WALL (    4575 calls)
     h_psi:calbec :      9.54s CPU     10.59s WALL (    4575 calls)
     vloc_psi     :     46.18s CPU     46.93s WALL (    4575 calls)
     add_vuspsi   :     12.04s CPU     12.21s WALL (    4575 calls)

     General routines
     calbec       :     12.33s CPU     13.84s WALL (    5547 calls)
     fft          :      0.15s CPU      0.15s WALL (     389 calls)
     ffts         :      0.02s CPU      0.02s WALL (     108 calls)
     fftw         :     50.94s CPU     51.77s WALL (  888888 calls)

     Parallel routines
     fft_scatt_xy :      4.35s CPU      4.42s WALL (  889385 calls)
     fft_scatt_yz :     32.03s CPU     32.58s WALL (  889385 calls)

     PWSCF        :   3m23.14s CPU   3m28.36s WALL


   This run was terminated on:  12:33:19  18Jul2020            

=------------------------------------------------------------------------------=
   JOB DONE.
=------------------------------------------------------------------------------=
