<UPF version="2.0.1">
  <PP_INFO>

 This pseudopotential file has been produced using the code
 ONCVPSP  (Optimized Norm-Conservinng Vanderbilt PSeudopotential)
 scalar-relativistic version 3.2.2 08/07/2015 by D. R. Hamann
 The code is available through a link at URL www.mat-simresearch.com.
 Documentation with the package provides a full discription of the
 input data below.


 While it is not required under the terms of the GNU GPL, it is
 suggested that you cite D. R. Hamann, Phys. Rev. B 88, 085117 (2013)
 in any publication using these pseudopotentials.

    <PP_INPUTFILE>
# ATOM AND REFERENCE CONFIGURATION
# atsym  z   nc   nv     iexc    psfile
  Ni 28.00    3    4       3      upf
#
#   n    l    f        energy (Ha)
    1    0    2.00
    2    0    2.00
    2    1    6.00
    3    0    2.00
    3    1    6.00
    4    0    2.00
    3    2    8.00
#
# PSEUDOPOTENTIAL AND OPTIMIZATION
# lmax
    2
#
#   l,   rc,     ep,   ncon, nbas, qcut
    0    2.21   -4.06    5    8    6.78
    1    2.21   -2.62    5    8    7.58
    2    2.29   -0.34    5    8    8.25
#
# LOCAL POTENTIAL
# lloc, lpopt,  rc(5),   dvloc0
    4    5      1.87       0.00
#
# VANDERBILT-KLEINMAN-BYLANDER PROJECTORs
# l, nproj, debl
    0    2    3.8452
    1    2    3.0557
    2    2    1.2757
#
# MODEL CORE CHARGE
# icmod, fcfact
    0    0.00
#
# LOG DERIVATIVE ANALYSIS
# epsh1, epsh2, depsh
   -5.00    3.00    0.02
#
# OUTPUT GRID
# rlmax, drl
    6.00    0.01
#
# TEST CONFIGURATIONS
# ncnf
    0
# nvcnf
#   n    l    f
    </PP_INPUTFILE>
  </PP_INFO>
  <!--                               -->
  <!-- END OF HUMAN READABLE SECTION -->
  <!--                               -->
    <PP_HEADER
       generated="Generated using ONCVPSP code by D. R. Hamann"
       author="anonymous"
       date="180809"
       comment="Modified by Emil Briggs to output UPF format on log grid for RMG."
       element="Ni"
       pseudo_type="NC"
       relativistic="scalar"
       is_ultrasoft="F"
       is_paw="F"
       is_coulomb="F"
       has_so="F"
       has_wfc="F"
       has_gipaw="F"
       core_correction="F"
       functional="PZ"
       z_valence="   18.00"
       total_psenergy="  -3.06664884626E+02"
       rho_cutoff="   1.33900000000E+01"
       l_max="2"
       l_local="-1"
       mesh_size="  1235"
       number_of_wfc="4"
       number_of_proj="6"/>
 <PP_MESH>
   <PP_R type="real"  size="1235" columns="4">
  0.178571428571E-04  0.180714285714E-04  0.182882857143E-04  0.185077451429E-04
  0.187298380846E-04  0.189545961416E-04  0.191820512953E-04  0.194122359108E-04
  0.196451827418E-04  0.198809249347E-04  0.201194960339E-04  0.203609299863E-04
  0.206052611461E-04  0.208525242799E-04  0.211027545712E-04  0.213559876261E-04
  0.216122594776E-04  0.218716065913E-04  0.221340658704E-04  0.223996746609E-04
  0.226684707568E-04  0.229404924059E-04  0.232157783148E-04  0.234943676545E-04
  0.237763000664E-04  0.240616156672E-04  0.243503550552E-04  0.246425593158E-04
  0.249382700276E-04  0.252375292680E-04  0.255403796192E-04  0.258468641746E-04
  0.261570265447E-04  0.264709108632E-04  0.267885617936E-04  0.271100245351E-04
  0.274353448296E-04  0.277645689675E-04  0.280977437951E-04  0.284349167207E-04
  0.287761357213E-04  0.291214493500E-04  0.294709067422E-04  0.298245576231E-04
  0.301824523145E-04  0.305446417423E-04  0.309111774432E-04  0.312821115725E-04
  0.316574969114E-04  0.320373868744E-04  0.324218355168E-04  0.328108975430E-04
  0.332046283136E-04  0.336030838533E-04  0.340063208596E-04  0.344143967099E-04
  0.348273694704E-04  0.352452979040E-04  0.356682414789E-04  0.360962603766E-04
  0.365294155012E-04  0.369677684872E-04  0.374113817090E-04  0.378603182895E-04
  0.383146421090E-04  0.387744178143E-04  0.392397108281E-04  0.397105873580E-04
  0.401871144063E-04  0.406693597792E-04  0.411573920965E-04  0.416512808017E-04
  0.421510961713E-04  0.426569093254E-04  0.431687922373E-04  0.436868177441E-04
  0.442110595571E-04  0.447415922717E-04  0.452784913790E-04  0.458218332756E-04
  0.463716952749E-04  0.469281556182E-04  0.474912934856E-04  0.480611890074E-04
  0.486379232755E-04  0.492215783548E-04  0.498122372951E-04  0.504099841426E-04
  0.510149039523E-04  0.516270827997E-04  0.522466077933E-04  0.528735670868E-04
  0.535080498919E-04  0.541501464906E-04  0.547999482485E-04  0.554575476275E-04
  0.561230381990E-04  0.567965146574E-04  0.574780728333E-04  0.581678097073E-04
  0.588658234238E-04  0.595722133048E-04  0.602870798645E-04  0.610105248229E-04
  0.617426511207E-04  0.624835629342E-04  0.632333656894E-04  0.639921660777E-04
  0.647600720706E-04  0.655371929355E-04  0.663236392507E-04  0.671195229217E-04
  0.679249571968E-04  0.687400566831E-04  0.695649373633E-04  0.703997166117E-04
  0.712445132110E-04  0.720994473695E-04  0.729646407380E-04  0.738402164268E-04
  0.747262990240E-04  0.756230146122E-04  0.765304907876E-04  0.774488566770E-04
  0.783782429572E-04  0.793187818726E-04  0.802706072551E-04  0.812338545422E-04
  0.822086607967E-04  0.831951647262E-04  0.841935067030E-04  0.852038287834E-04
  0.862262747288E-04  0.872609900255E-04  0.883081219059E-04  0.893678193687E-04
  0.904402332011E-04  0.915255159996E-04  0.926238221916E-04  0.937353080579E-04
  0.948601317545E-04  0.959984533356E-04  0.971504347756E-04  0.983162399929E-04
  0.994960348729E-04  0.100689987291E-03  0.101898267139E-03  0.103121046344E-03
  0.104358498901E-03  0.105610800887E-03  0.106878130498E-03  0.108160668064E-03
  0.109458596081E-03  0.110772099234E-03  0.112101364425E-03  0.113446580798E-03
  0.114807939767E-03  0.116185635044E-03  0.117579862665E-03  0.118990821017E-03
  0.120418710869E-03  0.121863735400E-03  0.123326100224E-03  0.124806013427E-03
  0.126303685588E-03  0.127819329815E-03  0.129353161773E-03  0.130905399714E-03
  0.132476264511E-03  0.134065979685E-03  0.135674771441E-03  0.137302868699E-03
  0.138950503123E-03  0.140617909160E-03  0.142305324070E-03  0.144012987959E-03
  0.145741143815E-03  0.147490037540E-03  0.149259917991E-03  0.151051037007E-03
  0.152863649451E-03  0.154698013244E-03  0.156554389403E-03  0.158433042076E-03
  0.160334238581E-03  0.162258249444E-03  0.164205348437E-03  0.166175812619E-03
  0.168169922370E-03  0.170187961438E-03  0.172230216976E-03  0.174296979579E-03
  0.176388543334E-03  0.178505205854E-03  0.180647268325E-03  0.182815035545E-03
  0.185008815971E-03  0.187228921763E-03  0.189475668824E-03  0.191749376850E-03
  0.194050369372E-03  0.196378973804E-03  0.198735521490E-03  0.201120347748E-03
  0.203533791921E-03  0.205976197424E-03  0.208447911793E-03  0.210949286735E-03
  0.213480678175E-03  0.216042446314E-03  0.218634955669E-03  0.221258575137E-03
  0.223913678039E-03  0.226600642175E-03  0.229319849882E-03  0.232071688080E-03
  0.234856548337E-03  0.237674826917E-03  0.240526924840E-03  0.243413247938E-03
  0.246334206913E-03  0.249290217396E-03  0.252281700005E-03  0.255309080405E-03
  0.258372789370E-03  0.261473262843E-03  0.264610941997E-03  0.267786273301E-03
  0.270999708580E-03  0.274251705083E-03  0.277542725544E-03  0.280873238251E-03
  0.284243717110E-03  0.287654641715E-03  0.291106497416E-03  0.294599775385E-03
  0.298134972689E-03  0.301712592362E-03  0.305333143470E-03  0.308997141191E-03
  0.312705106886E-03  0.316457568168E-03  0.320255058986E-03  0.324098119694E-03
  0.327987297131E-03  0.331923144696E-03  0.335906222433E-03  0.339937097102E-03
  0.344016342267E-03  0.348144538374E-03  0.352322272835E-03  0.356550140109E-03
  0.360828741790E-03  0.365158686691E-03  0.369540590932E-03  0.373975078023E-03
  0.378462778959E-03  0.383004332307E-03  0.387600384294E-03  0.392251588906E-03
  0.396958607973E-03  0.401722111268E-03  0.406542776604E-03  0.411421289923E-03
  0.416358345402E-03  0.421354645547E-03  0.426410901293E-03  0.431527832109E-03
  0.436706166094E-03  0.441946640087E-03  0.447249999768E-03  0.452616999766E-03
  0.458048403763E-03  0.463544984608E-03  0.469107524423E-03  0.474736814716E-03
  0.480433656493E-03  0.486198860371E-03  0.492033246695E-03  0.497937645656E-03
  0.503912897403E-03  0.509959852172E-03  0.516079370398E-03  0.522272322843E-03
  0.528539590717E-03  0.534882065806E-03  0.541300650596E-03  0.547796258403E-03
  0.554369813504E-03  0.561022251266E-03  0.567754518281E-03  0.574567572500E-03
  0.581462383370E-03  0.588439931971E-03  0.595501211154E-03  0.602647225688E-03
  0.609878992396E-03  0.617197540305E-03  0.624603910789E-03  0.632099157718E-03
  0.639684347611E-03  0.647360559782E-03  0.655128886500E-03  0.662990433138E-03
  0.670946318335E-03  0.678997674155E-03  0.687145646245E-03  0.695391394000E-03
  0.703736090728E-03  0.712180923817E-03  0.720727094903E-03  0.729375820041E-03
  0.738128329882E-03  0.746985869840E-03  0.755949700279E-03  0.765021096682E-03
  0.774201349842E-03  0.783491766040E-03  0.792893667233E-03  0.802408391239E-03
  0.812037291934E-03  0.821781739438E-03  0.831643120311E-03  0.841622837755E-03
  0.851722311808E-03  0.861942979549E-03  0.872286295304E-03  0.882753730848E-03
  0.893346775618E-03  0.904066936925E-03  0.914915740168E-03  0.925894729050E-03
  0.937005465799E-03  0.948249531388E-03  0.959628525765E-03  0.971144068074E-03
  0.982797796891E-03  0.994591370454E-03  0.100652646690E-02  0.101860478450E-02
  0.103082804192E-02  0.104319797842E-02  0.105571635416E-02  0.106838495041E-02
  0.108120556981E-02  0.109418003665E-02  0.110731019709E-02  0.112059791946E-02
  0.113404509449E-02  0.114765363563E-02  0.116142547925E-02  0.117536258500E-02
  0.118946693602E-02  0.120374053926E-02  0.121818542573E-02  0.123280365084E-02
  0.124759729465E-02  0.126256846218E-02  0.127771928373E-02  0.129305191513E-02
  0.130856853811E-02  0.132427136057E-02  0.134016261690E-02  0.135624456830E-02
  0.137251950312E-02  0.138898973716E-02  0.140565761400E-02  0.142252550537E-02
  0.143959581144E-02  0.145687096117E-02  0.147435341271E-02  0.149204565366E-02
  0.150995020150E-02  0.152806960392E-02  0.154640643917E-02  0.156496331644E-02
  0.158374287624E-02  0.160274779075E-02  0.162198076424E-02  0.164144453341E-02
  0.166114186781E-02  0.168107557023E-02  0.170124847707E-02  0.172166345879E-02
  0.174232342030E-02  0.176323130134E-02  0.178439007696E-02  0.180580275788E-02
  0.182747239098E-02  0.184940205967E-02  0.187159488438E-02  0.189405402300E-02
  0.191678267127E-02  0.193978406333E-02  0.196306147209E-02  0.198661820975E-02
  0.201045762827E-02  0.203458311981E-02  0.205899811725E-02  0.208370609465E-02
  0.210871056779E-02  0.213401509460E-02  0.215962327574E-02  0.218553875505E-02
  0.221176522011E-02  0.223830640275E-02  0.226516607958E-02  0.229234807254E-02
  0.231985624941E-02  0.234769452440E-02  0.237586685869E-02  0.240437726100E-02
  0.243322978813E-02  0.246242854559E-02  0.249197768813E-02  0.252188142039E-02
  0.255214399744E-02  0.258276972541E-02  0.261376296211E-02  0.264512811766E-02
  0.267686965507E-02  0.270899209093E-02  0.274149999602E-02  0.277439799597E-02
  0.280769077192E-02  0.284138306119E-02  0.287547965792E-02  0.290998541382E-02
  0.294490523878E-02  0.298024410165E-02  0.301600703087E-02  0.305219911524E-02
  0.308882550462E-02  0.312589141068E-02  0.316340210760E-02  0.320136293290E-02
  0.323977928809E-02  0.327865663955E-02  0.331800051922E-02  0.335781652545E-02
  0.339811032376E-02  0.343888764764E-02  0.348015429942E-02  0.352191615101E-02
  0.356417914482E-02  0.360694929456E-02  0.365023268609E-02  0.369403547833E-02
  0.373836390407E-02  0.378322427091E-02  0.382862296217E-02  0.387456643771E-02
  0.392106123496E-02  0.396811396978E-02  0.401573133742E-02  0.406392011347E-02
  0.411268715483E-02  0.416203940069E-02  0.421198387350E-02  0.426252767998E-02
  0.431367801214E-02  0.436544214829E-02  0.441782745406E-02  0.447084138351E-02
  0.452449148012E-02  0.457878537788E-02  0.463373080241E-02  0.468933557204E-02
  0.474560759891E-02  0.480255489009E-02  0.486018554877E-02  0.491850777536E-02
  0.497752986866E-02  0.503726022709E-02  0.509770734981E-02  0.515887983801E-02
  0.522078639607E-02  0.528343583282E-02  0.534683706281E-02  0.541099910757E-02
  0.547593109686E-02  0.554164227002E-02  0.560814197726E-02  0.567543968099E-02
  0.574354495716E-02  0.581246749664E-02  0.588221710660E-02  0.595280371188E-02
  0.602423735643E-02  0.609652820470E-02  0.616968654316E-02  0.624372278168E-02
  0.631864745506E-02  0.639447122452E-02  0.647120487921E-02  0.654885933776E-02
  0.662744564982E-02  0.670697499761E-02  0.678745869759E-02  0.686890820196E-02
  0.695133510038E-02  0.703475112158E-02  0.711916813504E-02  0.720459815266E-02
  0.729105333050E-02  0.737854597046E-02  0.746708852211E-02  0.755669358437E-02
  0.764737390738E-02  0.773914239427E-02  0.783201210300E-02  0.792599624824E-02
  0.802110820322E-02  0.811736150166E-02  0.821476983968E-02  0.831334707775E-02
  0.841310724269E-02  0.851406452960E-02  0.861623330395E-02  0.871962810360E-02
  0.882426364085E-02  0.893015480454E-02  0.903731666219E-02  0.914576446214E-02
  0.925551363568E-02  0.936657979931E-02  0.947897875690E-02  0.959272650198E-02
  0.970783922001E-02  0.982433329065E-02  0.994222529014E-02  0.100615319936E-01
  0.101822703775E-01  0.103044576221E-01  0.104281111135E-01  0.105532484469E-01
  0.106798874283E-01  0.108080460774E-01  0.109377426303E-01  0.110689955419E-01
  0.112018234884E-01  0.113362453703E-01  0.114722803147E-01  0.116099476785E-01
  0.117492670506E-01  0.118902582552E-01  0.120329413543E-01  0.121773366505E-01
  0.123234646903E-01  0.124713462666E-01  0.126210024218E-01  0.127724544509E-01
  0.129257239043E-01  0.130808325912E-01  0.132378025822E-01  0.133966562132E-01
  0.135574160878E-01  0.137201050808E-01  0.138847463418E-01  0.140513632979E-01
  0.142199796575E-01  0.143906194134E-01  0.145633068463E-01  0.147380665285E-01
  0.149149233268E-01  0.150939024068E-01  0.152750292356E-01  0.154583295865E-01
  0.156438295415E-01  0.158315554960E-01  0.160215341620E-01  0.162137925719E-01
  0.164083580828E-01  0.166052583798E-01  0.168045214803E-01  0.170061757381E-01
  0.172102498469E-01  0.174167728451E-01  0.176257741192E-01  0.178372834087E-01
  0.180513308096E-01  0.182679467793E-01  0.184871621406E-01  0.187090080863E-01
  0.189335161834E-01  0.191607183776E-01  0.193906469981E-01  0.196233347621E-01
  0.198588147792E-01  0.200971205566E-01  0.203382860033E-01  0.205823454353E-01
  0.208293335805E-01  0.210792855835E-01  0.213322370105E-01  0.215882238546E-01
  0.218472825409E-01  0.221094499314E-01  0.223747633305E-01  0.226432604905E-01
  0.229149796164E-01  0.231899593718E-01  0.234682388842E-01  0.237498577509E-01
  0.240348560439E-01  0.243232743164E-01  0.246151536082E-01  0.249105354515E-01
  0.252094618769E-01  0.255119754194E-01  0.258181191245E-01  0.261279365540E-01
  0.264414717926E-01  0.267587694541E-01  0.270798746876E-01  0.274048331838E-01
  0.277336911820E-01  0.280664954762E-01  0.284032934219E-01  0.287441329430E-01
  0.290890625383E-01  0.294381312888E-01  0.297913888642E-01  0.301488855306E-01
  0.305106721570E-01  0.308768002228E-01  0.312473218255E-01  0.316222896874E-01
  0.320017571637E-01  0.323857782496E-01  0.327744075886E-01  0.331677004797E-01
  0.335657128854E-01  0.339685014401E-01  0.343761234574E-01  0.347886369388E-01
  0.352061005821E-01  0.356285737891E-01  0.360561166746E-01  0.364887900747E-01
  0.369266555556E-01  0.373697754222E-01  0.378182127273E-01  0.382720312800E-01
  0.387312956554E-01  0.391960712032E-01  0.396664240577E-01  0.401424211464E-01
  0.406241302001E-01  0.411116197625E-01  0.416049591997E-01  0.421042187101E-01
  0.426094693346E-01  0.431207829666E-01  0.436382323622E-01  0.441618911506E-01
  0.446918338444E-01  0.452281358505E-01  0.457708734807E-01  0.463201239625E-01
  0.468759654500E-01  0.474384770354E-01  0.480077387598E-01  0.485838316250E-01
  0.491668376045E-01  0.497568396557E-01  0.503539217316E-01  0.509581687924E-01
  0.515696668179E-01  0.521885028197E-01  0.528147648535E-01  0.534485420318E-01
  0.540899245361E-01  0.547390036306E-01  0.553958716741E-01  0.560606221342E-01
  0.567333495998E-01  0.574141497950E-01  0.581031195926E-01  0.588003570277E-01
  0.595059613120E-01  0.602200328478E-01  0.609426732419E-01  0.616739853209E-01
  0.624140731447E-01  0.631630420224E-01  0.639209985267E-01  0.646880505090E-01
  0.654643071151E-01  0.662498788005E-01  0.670448773461E-01  0.678494158743E-01
  0.686636088648E-01  0.694875721711E-01  0.703214230372E-01  0.711652801136E-01
  0.720192634750E-01  0.728834946367E-01  0.737580965724E-01  0.746431937312E-01
  0.755389120560E-01  0.764453790007E-01  0.773627235487E-01  0.782910762313E-01
  0.792305691460E-01  0.801813359758E-01  0.811435120075E-01  0.821172341516E-01
  0.831026409614E-01  0.840998726529E-01  0.851090711248E-01  0.861303799783E-01
  0.871639445380E-01  0.882099118725E-01  0.892684308149E-01  0.903396519847E-01
  0.914237278085E-01  0.925208125422E-01  0.936310622927E-01  0.947546350403E-01
  0.958916906607E-01  0.970423909487E-01  0.982068996401E-01  0.993853824357E-01
  0.100578007025E+00  0.101784943109E+00  0.103006362427E+00  0.104242438776E+00
  0.105493348041E+00  0.106759268217E+00  0.108040379436E+00  0.109336863989E+00
  0.110648906357E+00  0.111976693233E+00  0.113320413552E+00  0.114680258515E+00
  0.116056421617E+00  0.117449098677E+00  0.118858487861E+00  0.120284789715E+00
  0.121728207192E+00  0.123188945678E+00  0.124667213026E+00  0.126163219582E+00
  0.127677178217E+00  0.129209304356E+00  0.130759816008E+00  0.132328933800E+00
  0.133916881006E+00  0.135523883578E+00  0.137150170181E+00  0.138795972223E+00
  0.140461523890E+00  0.142147062176E+00  0.143852826922E+00  0.145579060846E+00
  0.147326009576E+00  0.149093921691E+00  0.150883048751E+00  0.152693645336E+00
  0.154525969080E+00  0.156380280709E+00  0.158256844077E+00  0.160155926206E+00
  0.162077797321E+00  0.164022730889E+00  0.165991003659E+00  0.167982895703E+00
  0.169998690452E+00  0.172038674737E+00  0.174103138834E+00  0.176192376500E+00
  0.178306685018E+00  0.180446365238E+00  0.182611721621E+00  0.184803062280E+00
  0.187020699028E+00  0.189264947416E+00  0.191536126785E+00  0.193834560307E+00
  0.196160575030E+00  0.198514501931E+00  0.200896675954E+00  0.203307436065E+00
  0.205747125298E+00  0.208216090802E+00  0.210714683891E+00  0.213243260098E+00
  0.215802179219E+00  0.218391805370E+00  0.221012507034E+00  0.223664657119E+00
  0.226348633004E+00  0.229064816600E+00  0.231813594399E+00  0.234595357532E+00
  0.237410501822E+00  0.240259427844E+00  0.243142540978E+00  0.246060251470E+00
  0.249012974488E+00  0.252001130182E+00  0.255025143744E+00  0.258085445469E+00
  0.261182470814E+00  0.264316660464E+00  0.267488460390E+00  0.270698321914E+00
  0.273946701777E+00  0.277234062199E+00  0.280560870945E+00  0.283927601396E+00
  0.287334732613E+00  0.290782749405E+00  0.294272142397E+00  0.297803408106E+00
  0.301377049003E+00  0.304993573591E+00  0.308653496475E+00  0.312357338432E+00
  0.316105626493E+00  0.319898894011E+00  0.323737680740E+00  0.327622532908E+00
  0.331554003303E+00  0.335532651343E+00  0.339559043159E+00  0.343633751677E+00
  0.347757356697E+00  0.351930444977E+00  0.356153610317E+00  0.360427453641E+00
  0.364752583085E+00  0.369129614082E+00  0.373559169451E+00  0.378041879484E+00
  0.382578382038E+00  0.387169322622E+00  0.391815354494E+00  0.396517138748E+00
  0.401275344413E+00  0.406090648546E+00  0.410963736328E+00  0.415895301164E+00
  0.420886044778E+00  0.425936677315E+00  0.431047917443E+00  0.436220492453E+00
  0.441455138362E+00  0.446752600022E+00  0.452113631223E+00  0.457538994797E+00
  0.463029462735E+00  0.468585816288E+00  0.474208846083E+00  0.479899352236E+00
  0.485658144463E+00  0.491486042196E+00  0.497383874703E+00  0.503352481199E+00
  0.509392710974E+00  0.515505423505E+00  0.521691488587E+00  0.527951786450E+00
  0.534287207888E+00  0.540698654383E+00  0.547187038235E+00  0.553753282694E+00
  0.560398322086E+00  0.567123101951E+00  0.573928579175E+00  0.580815722125E+00
  0.587785510790E+00  0.594838936920E+00  0.601977004163E+00  0.609200728213E+00
  0.616511136951E+00  0.623909270595E+00  0.631396181842E+00  0.638972936024E+00
  0.646640611256E+00  0.654400298591E+00  0.662253102174E+00  0.670200139401E+00
  0.678242541073E+00  0.686381451566E+00  0.694618028985E+00  0.702953445333E+00
  0.711388886677E+00  0.719925553317E+00  0.728564659957E+00  0.737307435876E+00
  0.746155125107E+00  0.755108986608E+00  0.764170294447E+00  0.773340337981E+00
  0.782620422036E+00  0.792011867101E+00  0.801516009506E+00  0.811134201620E+00
  0.820867812040E+00  0.830718225784E+00  0.840686844494E+00  0.850775086627E+00
  0.860984387667E+00  0.871316200319E+00  0.881771994723E+00  0.892353258659E+00
  0.903061497763E+00  0.913898235737E+00  0.924865014565E+00  0.935963394740E+00
  0.947194955477E+00  0.958561294943E+00  0.970064030482E+00  0.981704798848E+00
  0.993485256434E+00  0.100540707951E+01  0.101747196447E+01  0.102968162804E+01
  0.104203780758E+01  0.105454226127E+01  0.106719676840E+01  0.108000312962E+01
  0.109296316718E+01  0.110607872518E+01  0.111935166989E+01  0.113278388992E+01
  0.114637729660E+01  0.116013382416E+01  0.117405543005E+01  0.118814409521E+01
  0.120240182436E+01  0.121683064625E+01  0.123143261400E+01  0.124620980537E+01
  0.126116432304E+01  0.127629829491E+01  0.129161387445E+01  0.130711324094E+01
  0.132279859984E+01  0.133867218303E+01  0.135473624923E+01  0.137099308422E+01
  0.138744500123E+01  0.140409434125E+01  0.142094347334E+01  0.143799479502E+01
  0.145525073256E+01  0.147271374135E+01  0.149038630625E+01  0.150827094192E+01
  0.152637019323E+01  0.154468663555E+01  0.156322287517E+01  0.158198154967E+01
  0.160096532827E+01  0.162017691221E+01  0.163961903516E+01  0.165929446358E+01
  0.167920599714E+01  0.169935646911E+01  0.171974874674E+01  0.174038573170E+01
  0.176127036048E+01  0.178240560480E+01  0.180379447206E+01  0.182544000573E+01
  0.184734528579E+01  0.186951342922E+01  0.189194759037E+01  0.191465096146E+01
  0.193762677300E+01  0.196087829427E+01  0.198440883380E+01  0.200822173981E+01
  0.203232040069E+01  0.205670824550E+01  0.208138874444E+01  0.210636540937E+01
  0.213164179429E+01  0.215722149582E+01  0.218310815377E+01  0.220930545161E+01
  0.223581711703E+01  0.226264692244E+01  0.228979868551E+01  0.231727626973E+01
  0.234508358497E+01  0.237322458799E+01  0.240170328304E+01  0.243052372244E+01
  0.245969000711E+01  0.248920628720E+01  0.251907676264E+01  0.254930568379E+01
  0.257989735200E+01  0.261085612022E+01  0.264218639367E+01  0.267389263039E+01
  0.270597934196E+01  0.273845109406E+01  0.277131250719E+01  0.280456825727E+01
  0.283822307636E+01  0.287228175328E+01  0.290674913432E+01  0.294163012393E+01
  0.297692968542E+01  0.301265284164E+01  0.304880467574E+01  0.308539033185E+01
  0.312241501583E+01  0.315988399602E+01  0.319780260397E+01  0.323617623522E+01
  0.327501035004E+01  0.331431047424E+01  0.335408219994E+01  0.339433118633E+01
  0.343506316057E+01  0.347628391850E+01  0.351799932552E+01  0.356021531743E+01
  0.360293790123E+01  0.364617315605E+01  0.368992723392E+01  0.373420636073E+01
  0.377901683706E+01  0.382436503910E+01  0.387025741957E+01  0.391670050861E+01
  0.396370091471E+01  0.401126532569E+01  0.405940050959E+01  0.410811331571E+01
  0.415741067550E+01  0.420729960360E+01  0.425778719885E+01  0.430888064523E+01
  0.436058721298E+01  0.441291425953E+01  0.446586923065E+01  0.451945966141E+01
  0.457369317735E+01  0.462857749548E+01  0.468412042543E+01  0.474032987053E+01
  0.479721382898E+01  0.485478039492E+01  0.491303775966E+01  0.497199421278E+01
  0.503165814333E+01  0.509203804105E+01  0.515314249755E+01  0.521498020752E+01
  0.527755997001E+01  0.534089068965E+01  0.540498137792E+01  0.546984115446E+01
  0.553547924831E+01  0.560190499929E+01  0.566912785928E+01  0.573715739359E+01
  0.580600328232E+01  0.587567532170E+01  0.594618342556E+01  0.601753762667E+01
  0.608974807819E+01  0.616282505513E+01  0.623677895579E+01  0.631162030326E+01
  0.638735974690E+01  0.646400806386E+01  0.654157616063E+01  0.662007507456E+01
  0.669951597545E+01  0.677991016716E+01  0.686126908916E+01  0.694360431823E+01
  0.702692757005E+01  0.711125070089E+01  0.719658570930E+01  0.728294473781E+01
  0.737034007467E+01  0.745878415556E+01  0.754828956543E+01  0.763886904022E+01
  0.773053546870E+01  0.782330189432E+01  0.791718151705E+01  0.801218769526E+01
  0.810833394760E+01  0.820563395497E+01  0.830410156243E+01  0.840375078118E+01
  0.850459579056E+01  0.860665094004E+01  0.870993075132E+01  0.881444992034E+01
  0.892022331938E+01  0.902726599922E+01  0.913559319121E+01  0.924522030950E+01
  0.935616295322E+01  0.946843690865E+01  0.958205815156E+01  0.969704284938E+01
  0.981340736357E+01  0.993116825193E+01  0.100503422710E+02  0.101709463782E+02
  0.102929977347E+02  0.104165137076E+02  0.105415118721E+02  0.106680100145E+02
  0.107960261347E+02  0.109255784483E+02  0.110566853897E+02  0.111893656144E+02
  0.113236380017E+02  0.114595216578E+02  0.115970359177E+02  0.117362003487E+02
  0.118770347528E+02  0.120195591699E+02  0.121637938799E+02  0.123097594065E+02
  0.124574765194E+02  0.126069662376E+02  0.127582498324E+02  0.129113488304E+02
  0.130662850164E+02  0.132230804366E+02  0.133817574018E+02  0.135423384907E+02
  0.137048465525E+02  0.138693047112E+02  0.140357363677E+02  0.142041652041E+02
  0.143746151866E+02  0.145471105688E+02  0.147216758956E+02  0.148983360064E+02
  0.150771160385E+02  0.152580414309E+02  0.154411379281E+02  0.156264315832E+02
  0.158139487622E+02  0.160037161474E+02  0.161957607411E+02  0.163901098700E+02
  0.165867911885E+02  0.167858326827E+02  0.169872626749E+02  0.171911098270E+02
  0.173974031449E+02  0.176061719827E+02  0.178174460465E+02  0.180312553990E+02
  0.182476304638E+02  0.184666020294E+02  0.186882012537E+02  0.189124596688E+02
  0.191394091848E+02  0.193690820950E+02  0.196015110802E+02  0.198367292131E+02
  0.200747699637E+02  0.203156672033E+02  0.205594552097E+02  0.208061686722E+02
  0.210558426963E+02  0.213085128086E+02  0.215642149623E+02  0.218229855419E+02
  0.220848613684E+02  0.223498797048E+02  0.226180782613E+02  0.228894952004E+02
  0.231641691428E+02  0.234421391725E+02  0.237234448426E+02  0.240081261807E+02
  0.242962236949E+02  0.245877783792E+02  0.248828317198E+02  0.251814257004E+02
  0.254836028088E+02  0.257894060425E+02  0.260988789150E+02  0.264120654620E+02
  0.267290102475E+02  0.270497583705E+02  0.273743554710E+02  0.277028477366E+02
  0.280352819095E+02  0.283717052924E+02  0.287121657559E+02  0.290567117449E+02
  0.294053922859E+02  0.297582569933E+02  0.301153560772E+02  0.304767403502E+02
  0.308424612344E+02  0.312125707692E+02  0.315871216184E+02  0.319661670778E+02
  0.323497610828E+02  0.327379582158E+02  0.331308137143E+02  0.335283834789E+02
  0.339307240807E+02  0.343378927696E+02  0.347499474829E+02  0.351669468527E+02
  0.355889502149E+02  0.360160176175E+02  0.364482098289E+02  0.368855883468E+02
  0.373282154070E+02  0.377761539919E+02  0.382294678398E+02  0.386882214538E+02
  0.391524801113E+02  0.396223098726E+02  0.400977775911E+02  0.405789509222E+02
  0.410658983333E+02  0.415586891133E+02  0.420573933826E+02  0.425620821032E+02
  0.430728270884E+02  0.435897010135E+02  0.441127774257E+02
   </PP_R>
   <PP_RAB type="real"  size="1235" columns="4">
  0.213010194023E-06  0.215566316351E-06  0.218153112147E-06  0.220770949493E-06
  0.223420200887E-06  0.226101243298E-06  0.228814458217E-06  0.231560231716E-06
  0.234338954496E-06  0.237151021950E-06  0.239996834214E-06  0.242876796224E-06
  0.245791317779E-06  0.248740813592E-06  0.251725703355E-06  0.254746411796E-06
  0.257803368737E-06  0.260897009162E-06  0.264027773272E-06  0.267196106551E-06
  0.270402459830E-06  0.273647289348E-06  0.276931056820E-06  0.280254229502E-06
  0.283617280256E-06  0.287020687619E-06  0.290464935870E-06  0.293950515101E-06
  0.297477921282E-06  0.301047656337E-06  0.304660228213E-06  0.308316150952E-06
  0.312015944763E-06  0.315760136101E-06  0.319549257734E-06  0.323383848827E-06
  0.327264455013E-06  0.331191628473E-06  0.335165928014E-06  0.339187919151E-06
  0.343258174180E-06  0.347377272270E-06  0.351545799538E-06  0.355764349132E-06
  0.360033521322E-06  0.364353923578E-06  0.368726170661E-06  0.373150884709E-06
  0.377628695325E-06  0.382160239669E-06  0.386746162545E-06  0.391387116495E-06
  0.396083761893E-06  0.400836767036E-06  0.405646808241E-06  0.410514569939E-06
  0.415440744779E-06  0.420426033716E-06  0.425471146121E-06  0.430576799874E-06
  0.435743721473E-06  0.440972646130E-06  0.446264317884E-06  0.451619489698E-06
  0.457038923575E-06  0.462523390658E-06  0.468073671346E-06  0.473690555402E-06
  0.479374842067E-06  0.485127340171E-06  0.490948868253E-06  0.496840254672E-06
  0.502802337729E-06  0.508835965781E-06  0.514941997371E-06  0.521121301339E-06
  0.527374756955E-06  0.533703254039E-06  0.540107693087E-06  0.546588985404E-06
  0.553148053229E-06  0.559785829868E-06  0.566503259826E-06  0.573301298944E-06
  0.580180914531E-06  0.587143085506E-06  0.594188802532E-06  0.601319068162E-06
  0.608534896980E-06  0.615837315744E-06  0.623227363533E-06  0.630706091895E-06
  0.638274564998E-06  0.645933859778E-06  0.653685066095E-06  0.661529286888E-06
  0.669467638331E-06  0.677501249991E-06  0.685631264991E-06  0.693858840171E-06
  0.702185146253E-06  0.710611368008E-06  0.719138704424E-06  0.727768368877E-06
  0.736501589304E-06  0.745339608375E-06  0.754283683676E-06  0.763335087880E-06
  0.772495108935E-06  0.781765050242E-06  0.791146230845E-06  0.800639985615E-06
  0.810247665442E-06  0.819970637427E-06  0.829810285077E-06  0.839768008497E-06
  0.849845224599E-06  0.860043367295E-06  0.870363887702E-06  0.880808254355E-06
  0.891377953407E-06  0.902074488848E-06  0.912899382714E-06  0.923854175307E-06