<UPF version="2.0.1">
  <PP_INFO>
    Generated using FHI98PP, converted with fhi2upf.x v.5.0.2
    Author: unknown
    Generation date: unknown
    Pseudopotential type: SL
    Element: C
    Functional: LDA

    Suggested minimum cutoff for wavefunctions:   0. Ry
    Suggested minimum cutoff for charge density:   0. Ry
    The Pseudo was generated with a Scalar-Relativistic Calculation
    L component and cutoff radius for Local Potential:  2   0.0000

    Valence configuration: 
    nl pn  l   occ       Rcut    Rcut US       E pseu
    2s  2  0  2.00      0.000      0.000     0.000000
    2p  2  1  2.00      0.000      0.000     0.000000
    3d  3  2  0.00      0.000      0.000     0.000000

    Generation configuration: not available.
    Comment:
    Info: automatically converted from FHI format
  </PP_INFO>
  <!--                               -->
  <!-- END OF HUMAN READABLE SECTION -->
  <!--                               -->
  <PP_HEADER generated="Generated using FHI98PP, converted with fhi2upf.x v.5.0.2"
             author="unknown"
             date="unknown"
             comment="Info: automatically converted from FHI format"
             element="C "
             pseudo_type="SL"
             relativistic="scalar"
             is_ultrasoft="F"
             is_paw="F"
             is_coulomb="F"
             has_so="F"
             has_wfc="F"
             has_gipaw="F"
             paw_as_gipaw="F"
             core_correction="F"
             functional="LDA"
             z_valence="4.000000000000000E+000"
             total_psenergy="0.000000000000000E+000"
             wfc_cutoff="0.000000000000000E+000"
             rho_cutoff="0.000000000000000E+000"
             l_max="1"
             l_max_rho="0"
             l_local="2"
             mesh_size="461"
             number_of_wfc="3"
             number_of_proj="2"/>
  <PP_MESH dx="2.439988682353512E-002" mesh="461" xmin="-Infinity" rmax="7.802385820668900E+001" zmesh="0.000000000000000E+000">
    <PP_R type="real" size="461" columns="4">
 1.041666666666700E-003  1.067395833333300E-003  1.093760510416700E-003  1.120776395024000E-003 
 1.148459571981000E-003  1.176826523409000E-003  1.205894138537200E-003  1.235679723759100E-003 
 1.266201012935900E-003  1.297476177955400E-003  1.329523839550900E-003  1.362363078387800E-003 
 1.396013446424000E-003  1.430494978550700E-003  1.465828204520900E-003  1.502034161172500E-003 
 1.539134404953500E-003  1.577151024755900E-003  1.616106655067300E-003  1.656024489447500E-003 
 1.696928294336800E-003  1.738842423207000E-003  1.781791831060200E-003  1.825802089287400E-003 
 1.870899400892800E-003  1.917110616094800E-003  1.964463248312300E-003  2.012985490545700E-003 
 2.062706232162100E-003  2.113655076096500E-003  2.165862356476100E-003  2.219359156681100E-003 
 2.274177327851100E-003  2.330349507849000E-003  2.387909140692900E-003  2.446890496468000E-003 
 2.507328691730800E-003  2.569259710416500E-003  2.632720425263800E-003  2.697748619767800E-003 
 2.764383010676100E-003  2.832663271039800E-003  2.902630053834500E-003  2.974325016164200E-003 
 3.047790844063500E-003  3.123071277911800E-003  3.200211138476200E-003  3.279256353596600E-003 
 3.360253985530400E-003  3.443252258973000E-003  3.528300589769700E-003  3.615449614337000E-003 
 3.704751219811100E-003  3.796258574940400E-003  3.890026161741500E-003  3.986109807936500E-003 
 4.084566720192500E-003  4.185455518181300E-003  4.288836269480300E-003  4.394770525336500E-003 
 4.503321357312300E-003  4.614553394837900E-003  4.728532863690400E-003  4.845327625423600E-003 
 4.965007217771600E-003  5.087642896050500E-003  5.213307675583000E-003  5.342076375169900E-003 
 5.474025661636600E-003  5.609234095479000E-003  5.747782177637300E-003  5.889752397424900E-003 
 6.035229281641300E-003  6.184299444897900E-003  6.337051641186900E-003  6.493576816724200E-003 
 6.653968164097300E-003  6.818321177750500E-003  6.986733710840900E-003  7.159306033498700E-003 
 7.336140892526100E-003  7.517343572571500E-003  7.703021958814000E-003  7.893286601196699E-003 
 8.088250780246300E-003  8.288030574518299E-003  8.492744929708900E-003  8.702515729472801E-003 
 8.917467867990700E-003  9.137729324330100E-003  9.363431238641100E-003  9.594707990235500E-003 
 9.831697277594300E-003  1.007454020035100E-002  1.032338134330000E-002  1.057836886247900E-002 
 1.083965457338200E-002  1.110739404134500E-002  1.138174667416600E-002  1.166287581701800E-002 
 1.195094884969800E-002  1.224613728628600E-002  1.254861687725700E-002  1.285856771412500E-002 
 1.317617433666400E-002  1.350162584278000E-002  1.383511600109600E-002  1.417684336632400E-002 
 1.452701139747200E-002  1.488582857898900E-002  1.525350854489000E-002  1.563027020594900E-002 
 1.601633788003600E-002  1.641194142567300E-002  1.681731637888700E-002  1.723270409344600E-002 
 1.765835188455400E-002  1.809451317610200E-002  1.854144765155200E-002  1.899942140854500E-002 
 1.946870711733600E-002  1.994958418313500E-002  2.044233891245800E-002  2.094726468359600E-002 
 2.146466212128000E-002  2.199483927567600E-002  2.253811180578500E-002  2.309480316738800E-002 
 2.366524480562300E-002  2.424977635232200E-002  2.484874582822400E-002  2.546250985018100E-002 
 2.609143384348000E-002  2.673589225941400E-002  2.739626879822200E-002  2.807295663753800E-002 
 2.876635866648500E-002  2.947688772554700E-002  3.020496685236800E-002  3.095102953362200E-002 
 3.171551996310200E-002  3.249889330619100E-002  3.330161597085400E-002  3.412416588533400E-002 
 3.496703278270200E-002  3.583071849243500E-002  3.671573723919800E-002  3.762261594900600E-002 
 3.855189456294600E-002  3.950412635865100E-002  4.047987827971000E-002  4.147973127321900E-002 
 4.250428063566700E-002  4.355413636736800E-002  4.462992353564200E-002  4.573228264697200E-002 
 4.686187002835300E-002  4.801935821805300E-002  4.920543636603900E-002  5.042081064428000E-002 
 5.166620466719400E-002  5.294235992247300E-002  5.425003621255800E-002  5.559001210700900E-002 
 5.696308540605200E-002  5.837007361558100E-002  5.981181443388600E-002  6.128916625040300E-002 
 6.280300865678801E-002  6.435424297061100E-002  6.594379277198500E-002  6.757260445345301E-002 
 6.924164778345300E-002  7.095191648370400E-002  7.270442882085200E-002  7.450022821272700E-002 
 7.634038384958100E-002  7.822599133066600E-002  8.015817331653299E-002  8.213808019745200E-002 
 8.416689077832901E-002  8.624581298055400E-002  8.837608456117300E-002  9.055897384983400E-002 
 9.279578050392499E-002  9.508783628237200E-002  9.743650583854700E-002  9.984318753275900E-002 
 1.023093142648200E-001  1.048363543271600E-001  1.074258122790400E-001  1.100792298423300E-001 
 1.127981868194400E-001  1.155843020338800E-001  1.184392342941100E-001  1.213646833811800E-001 
 1.243623910606900E-001  1.274341421198900E-001  1.305817654302500E-001  1.338071350363800E-001 
 1.371121712717800E-001  1.404988419021900E-001  1.439691632971800E-001  1.475252016306200E-001 
 1.511690741108900E-001  1.549029502414300E-001  1.587290531124000E-001  1.626496607242700E-001 
 1.666671073441600E-001  1.707837848955600E-001  1.750021443824800E-001  1.793246973487300E-001 
 1.837540173732400E-001  1.882927416023600E-001  1.929435723199400E-001  1.977092785562400E-001 
 2.025926977365800E-001  2.075967373706800E-001  2.127243767837300E-001  2.179786688902900E-001 
 2.233627420118800E-001  2.288798017395800E-001  2.345331328425400E-001  2.403261012237500E-001 
 2.462621559239800E-001  2.523448311753000E-001  2.585777485053300E-001  2.649646188934100E-001 
 2.715092449800800E-001  2.782155233310900E-001  2.850874467573700E-001  2.921291066922700E-001 
 2.993446956275700E-001  3.067385096095700E-001  3.143149507969300E-001  3.220785300816100E-001 
 3.300338697746300E-001  3.381857063580600E-001  3.465388933051100E-001  3.550984039697400E-001 
 3.638693345478000E-001  3.728569071111300E-001  3.820664727167700E-001  3.915035145928800E-001 
 4.011736514033200E-001  4.110826405929800E-001  4.212363818156300E-001  4.316409204464800E-001 
 4.423024511815000E-001  4.532273217256900E-001  4.644220365723100E-001  4.758932608756500E-001 
 4.876478244192800E-001  4.996927256824300E-001  5.120351360067900E-001  5.246824038661601E-001 
 5.376420592416500E-001  5.509218181049200E-001  5.645295870121100E-001  5.784734678113100E-001 
 5.927617624662500E-001  6.074029779991600E-001  6.224058315557400E-001  6.377792555951700E-001 
 6.535324032083700E-001  6.696746535676200E-001  6.862156175107400E-001  7.031651432632500E-001 
 7.205333223018600E-001  7.383304953627100E-001  7.565672585981700E-001  7.752544698855500E-001 
 7.944032552917200E-001  8.140250156974200E-001  8.341314335851500E-001  8.547344799947000E-001 
 8.758464216505700E-001  8.974798282653400E-001  9.196475800234900E-001  9.423628752500800E-001 
 9.656392382687500E-001  9.894905274539900E-001  1.013930943482100E+000  1.038975037786100E+000 
 1.064637721219400E+000  1.090934272933500E+000  1.117880349475000E+000  1.145491994107000E+000 
 1.173785646361500E+000  1.202778151826600E+000  1.232486772176700E+000  1.262929195449500E+000 
 1.294123546577100E+000  1.326088398177600E+000  1.358842781612500E+000  1.392406198318400E+000 
 1.426798631416800E+000  1.462040557612800E+000  1.498152959385900E+000  1.535157337482700E+000 
 1.573075723718500E+000  1.611930694094400E+000  1.651745382238500E+000  1.692543493179800E+000 
 1.734349317461300E+000  1.777187745602600E+000  1.821084282919000E+000  1.866065064707100E+000 
 1.912156871805400E+000  1.959387146539000E+000  2.007784009058500E+000  2.057376274082200E+000 
 2.108193468052000E+000  2.160265846712900E+000  2.213624413126700E+000  2.268300936131000E+000 
 2.324327969253400E+000  2.381738870094000E+000  2.440567820185300E+000  2.500849845343900E+000 
 2.562620836523900E+000  2.625917571186000E+000  2.690777735194300E+000  2.757239945253600E+000 
 2.825343771901400E+000  2.895129763067300E+000  2.966639468215100E+000  3.039915463080000E+000 
 3.115001375018100E+000  3.191941908981000E+000  3.270782874132800E+000  3.351571211123900E+000 
 3.434355020038700E+000  3.519183589033600E+000  3.606107423682800E+000  3.695178277047700E+000 
 3.786449180490800E+000  3.879974475248900E+000  3.975809844787600E+000  4.074012347953800E+000 
 4.174640452948300E+000  4.277754072136100E+000  4.383414597717900E+000  4.491684938281500E+000 
 4.602629556257100E+000  4.716314506296600E+000  4.832807474602100E+000  4.952177819224800E+000 
 5.074496611359700E+000  5.199836677660300E+000  5.328272643598500E+000  5.459880977895300E+000 
 5.594740038049400E+000  5.732930116989200E+000  5.874533490878800E+000  6.019634468103500E+000 
 6.168319439465700E+000  6.320676929620500E+000  6.476797649782100E+000  6.636774551731700E+000 
 6.800702883159500E+000  6.968680244373500E+000  7.140806646409600E+000  7.317184570575900E+000 
 7.497919029469100E+000  7.683117629497000E+000  7.872890634945600E+000  8.067351033628700E+000 
 8.266614604159299E+000  8.470799984882101E+000  8.680028744508700E+000  8.894425454498000E+000 
 9.114117763224099E+000  9.339236471975800E+000  9.569915612833601E+000  9.806292528470500E+000 
 1.004850795392400E+001  1.029670610038600E+001  1.055103474106500E+001  1.081164529917000E+001 
 1.107869293805900E+001  1.135233665362900E+001  1.163273936897400E+001  1.192006803138700E+001 
 1.221449371176300E+001  1.251619170644300E+001  1.282534164159200E+001  1.314212758014000E+001 
 1.346673813136900E+001  1.379936656321400E+001  1.414021091732500E+001  1.448947412698300E+001 
 1.484736413792000E+001  1.521409403212600E+001  1.558988215472000E+001  1.597495224394100E+001 
 1.636953356436700E+001  1.677386104340700E+001  1.718817541117900E+001  1.761272334383500E+001 
 1.804775761042800E+001  1.849353722340500E+001  1.895032759282300E+001  1.941840068436600E+001 
 1.989803518127000E+001  2.038951665024700E+001  2.089313771150800E+001  2.140919821298300E+001 
 2.193800540884300E+001  2.247987414244200E+001  2.303512703376000E+001  2.360409467149400E+001 
 2.418711580988000E+001  2.478453757038400E+001  2.539671564837200E+001  2.602401452488700E+001 
 2.666680768365200E+001  2.732547783343800E+001  2.800041713592400E+001  2.869202743918100E+001 
 2.940072051692900E+001  3.012691831369700E+001  3.087105319604500E+001  3.163356820998800E+001 
 3.241491734477400E+001  3.321556580319000E+001  3.403599027852900E+001  3.487667923840900E+001 
 3.573813321559800E+001  3.662086510602300E+001  3.752540047414200E+001  3.845227786585300E+001 
 3.940204912913900E+001  4.037527974262900E+001  4.137254915227200E+001  4.239445111633300E+001 
 4.344159405890700E+001  4.451460143216200E+001  4.561411208753600E+001  4.674078065609800E+001 
 4.789527793830400E+001  4.907829130338000E+001  5.029052509857300E+001  5.153270106850800E+001 
 5.280555878490000E+001  5.410985608688700E+001  5.544636953223300E+001  5.681589485968000E+001 
 5.821924746271400E+001  5.965726287504300E+001  6.113079726805600E+001  6.264072796057700E+001 
 6.418795394120301E+001  6.577339640355100E+001  6.739799929471900E+001  6.906272987729800E+001 
 7.076857930526801E+001  7.251656321410800E+001  7.430772232549600E+001  7.614312306693600E+001 
 7.802385820668900E+001
    </PP_R>
    <PP_RAB type="real" size="461" columns="4">
 2.541654877451657E-005  2.604433752924548E-005  2.668763266621949E-005  2.734681719307529E-005 
 2.802228357774199E-005  2.871443398211390E-005  2.942368050147206E-005  3.015044540985918E-005 
 3.089516141148149E-005  3.165827189834467E-005  3.244023121423382E-005  3.324150492522523E-005 
 3.406257009687881E-005  3.490391557827238E-005  3.576604229305565E-005  3.664946353769251E-005 
 3.755470528707447E-005  3.848230650766640E-005  3.943281947840403E-005  4.040681011952153E-005 
 4.140485832947242E-005  4.242755833021236E-005  4.347551902096829E-005  4.454936434078653E-005 
 4.564973364000398E-005  4.677728206091081E-005  4.793268092781429E-005  4.911661814673341E-005 
 5.032979861495580E-005  5.157294464074512E-005  5.284679637337192E-005  5.415211224379519E-005 
 5.548966941621636E-005  5.686026425079637E-005  5.826471277779177E-005  5.970385118340287E-005 
 6.117853630763390E-005  6.268964615443121E-005  6.423808041444598E-005  6.582476100068240E-005 
 6.745063259740012E-005  6.911666322255592E-005  7.082384480415345E-005  7.257319377081576E-005 
 7.436575165695598E-005  7.620258572288113E-005  7.808478959023576E-005  8.001348389311550E-005 
 8.198981694527459E-005  8.401496542382285E-005  8.609013506979290E-005  8.821656140601649E-005 
 9.039551047274452E-005  9.262827958142048E-005  9.491619808708333E-005  9.726062817983392E-005 
 9.966296569587504E-005  1.021246409485643E-004  1.046471195799919E-004  1.072319034336186E-004 
 1.098805314484287E-004  1.125945805752045E-004  1.153756667154122E-004  1.182254456832840E-004 
 1.211456141916620E-004  1.241379108621947E-004  1.272041172604922E-004  1.303460589568263E-004 
 1.335656066130600E-004  1.368646770964020E-004  1.402452346206824E-004  1.437092919158122E-004 
 1.472589114261329E-004  1.508962065383598E-004  1.546233428398578E-004  1.584425394080019E-004 
 1.623560701313799E-004  1.663662650636249E-004  1.704755118106955E-004  1.746862569524204E-004 
 1.790010074991448E-004  1.834223323843738E-004  1.879528639942674E-004  1.925952997349257E-004 
 1.973524036383793E-004  2.022270080082453E-004  2.072220151060489E-004  2.123403988791705E-004 
 2.175852067314841E-004  2.229595613377525E-004  2.284666625027961E-004  2.341097890666143E-004 
 2.398923008565593E-004  2.458176406877192E-004  2.518893364127140E-004  2.581110030220956E-004 
 2.644863447967357E-004  2.710191575132264E-004  2.777133307037977E-004  2.845728499721839E-004 
 2.916017993664885E-004  2.988043638108519E-004  3.061848315969735E-004  3.137475969374127E-004 
 3.214971625817695E-004  3.294381424975490E-004  3.375752646172222E-004  3.459133736532903E-004 
 3.544574339825215E-004  3.632125326018762E-004  3.721838821571419E-004  3.813768240464286E-004 
 3.907968316003768E-004  4.004495133409088E-004  4.103406163204263E-004  4.204760295435527E-004 
 4.308617874732757E-004  4.415040736238538E-004  4.524092242423698E-004  4.635837320811482E-004 
 4.750342502635511E-004  4.867675962450804E-004  4.987907558723232E-004  5.111108875423766E-004 
 5.237353264646533E-004  5.366715890283396E-004  5.499273772773348E-004  5.635105834960876E-004 
 5.774292949084536E-004  5.916917984926951E-004  6.063065859154561E-004  6.212823585875646E-004 
 6.366280328446660E-004  6.523527452559304E-004  6.684658580637633E-004  6.849769647579363E-004 
 7.018958957874527E-004  7.192327244133984E-004  7.369977727064090E-004  7.552016176922698E-004 
 7.738550976492575E-004  7.929693185612035E-004  8.125556607296673E-004  8.326257855496877E-004 
 8.531916424527712E-004  8.742654760213609E-004  8.958598332790851E-004  9.179875711610737E-004 
 9.406618641687413E-004  9.638962122137149E-004  9.877044486554017E-004  1.012100748537194E-003 
 1.037099637026050E-003  1.062715998060594E-003  1.088965083212691E-003  1.115862520768036E-003 
 1.143424325031026E-003  1.171666905859284E-003  1.200607078434011E-003  1.230262073271327E-003 
 1.260649546481136E-003  1.291787590279203E-003  1.323694743759097E-003  1.356390003929967E-003 
 1.389892837027034E-003  1.424223190101590E-003  1.459401502897103E-003  1.495448720018662E-003 
 1.532386303403124E-003  1.570236245097189E-003  1.609021080351088E-003  1.648763901035759E-003 
 1.689488369391335E-003  1.731218732115294E-003  1.773979834798554E-003  1.817797136718077E-003 
 1.862696725995005E-003  1.908705335127090E-003  1.955850356904718E-003  2.004159860720280E-003 
 2.053662609280069E-003  2.104388075729294E-003  2.156366461199791E-003  2.209628712791426E-003 
 2.264206541997377E-003  2.320132443584713E-003  2.377439714941266E-003  2.436162475900313E-003 
 2.496335689055095E-003  2.557995180574730E-003  2.621177661534906E-003  2.685920749774762E-003 
 2.752262992294307E-003  2.820243888203972E-003  2.889903912242444E-003  2.961284538874966E-003 
 3.034428266985052E-003  3.109378645179606E-003  3.186180297715511E-003  3.264878951069153E-003 
 3.345521461160596E-003  3.428155841251190E-003  3.512831290530238E-003  3.599598223406327E-003 
 3.688508299524309E-003  3.779614454522584E-003  3.872970931549455E-003  3.968633313558573E-003 
 4.066658556403483E-003  4.167105022746631E-003  4.270032516808464E-003  4.375502319973700E-003 
 4.483577227276962E-003  4.594321584790727E-003  4.707801327935099E-003  4.824084020735035E-003 
 4.943238896047212E-003  5.065336896779736E-003  5.190450718130054E-003  5.318654850867912E-003 
 5.450025625684345E-003  5.584641258638909E-003  5.722581897727104E-003  5.863929670600946E-003 
 6.008768733464871E-003  6.157185321181396E-003  6.309267798614579E-003  6.465106713240319E-003 
 6.624794849057423E-003  6.788427281829192E-003  6.956101435690423E-003  7.127917141151804E-003 
 7.303976694538276E-003  7.484384918893348E-003  7.669249226390102E-003  7.858679682281837E-003 
 8.052789070434300E-003  8.251692960473947E-003  8.455509776597796E-003  8.664360868079611E-003 
 8.878370581521359E-003  9.097666334884919E-003  9.322378693356458E-003  9.552641447082504E-003 
 9.788591690825341E-003  1.003036990558868E-002  1.027812004225680E-002  1.053198960730064E-002 
 1.079212975060077E-002  1.105869535544078E-002  1.133184513072005E-002  1.161174170544893E-002 
 1.189855172557356E-002  1.219244595319507E-002  1.249359936823909E-002  1.280219127263465E-002 
 1.311840539706862E-002  1.344243001037625E-002  1.377445803163251E-002  1.411468714501385E-002 
 1.446331991749571E-002  1.482056391945770E-002  1.518663184826832E-002  1.556174165492063E-002 
 1.594611667379715E-002  1.633998575564002E-002  1.674358340380432E-002  1.715714991387816E-002 
 1.758093151675114E-002  1.801518052521475E-002  1.846015548418758E-002  1.891612132464714E-002 
 1.938334952136584E-002  1.986211825454345E-002  2.035271257543076E-002  2.085542457604382E-002 
 2.137055356307213E-002  2.189840623608003E-002  2.243929687011112E-002  2.299354750280310E-002 
 2.356148812612216E-002  2.414345688283743E-002  2.473980026784342E-002  2.535087333445897E-002 
 2.597703990581970E-002  2.661867279149297E-002  2.727615400944389E-002  2.794987501347636E-002 
 2.864023692631062E-002  2.934765077838979E-002  3.007253775261560E-002  3.081532943510607E-002 
 3.157646807215312E-002  3.235640683353642E-002  3.315561008232265E-002  3.397455365135776E-002 
 3.481372512654472E-002  3.567362413717050E-002  3.655476265336017E-002  3.745766529089739E-002 
 3.838286962358201E-002  3.933092650328578E-002  4.030240038791616E-002  4.129786967749791E-002 
 4.231792705853111E-002  4.336317985687697E-002  4.443425039934221E-002  4.553177638420598E-002 
 4.665641126089672E-002  4.780882461904103E-002  4.898970258713102E-002  5.019974824103206E-002 
 5.143968202258480E-002  5.271024216854303E-002  5.401218515010583E-002  5.534628612331517E-002 
 5.671333939056018E-002  5.811415887350802E-002  5.954957859768313E-002  6.102045318904647E-002 
 6.252765838281606E-002  6.407209154487063E-002  6.565467220602907E-002  6.727634260951801E-002 
 6.893806827197399E-002  7.064083855829016E-002  7.238566727068085E-002  7.417359325226636E-002 
 7.600568100559793E-002  7.788302132643504E-002  7.980673195319724E-002  8.177795823244169E-002 
 8.379787380078398E-002  8.586768128366197E-002  8.798861301137013E-002  9.016193175274939E-002 
 9.238893146704283E-002  9.467093807427823E-002  9.700931024471417E-002  9.940544020775730E-002 
 1.018607545808899E-001  1.043767152190373E-001  1.069548200849485E-001  1.095966041410459E-001 
 1.123036402633309E-001  1.150775401778340E-001  1.179199554202258E-001  1.208325783191061E-001 
 1.238171430035892E-001  1.268754264357782E-001  1.300092494687417E-001  1.332204779306176E-001 
 1.365110237355059E-001  1.398828460217725E-001  1.433379523185094E-001  1.468783997407764E-001 
 1.505062962143747E-001  1.542238017308697E-001  1.580331296336215E-001  1.619365479355715E-001 
 1.659363806695808E-001  1.700350092721185E-001  1.742348740011416E-001  1.785384753889694E-001 
 1.829483757310763E-001  1.874672006116342E-001  1.920976404667422E-001  1.968424521862694E-001 
 2.017044607552695E-001  2.066865609359263E-001  2.117917189910439E-001  2.170229744501211E-001 
 2.223834419190391E-001  2.278763129344410E-001  2.335048578639216E-001  2.392724278531583E-001 
 2.451824568211381E-001  2.512384635046221E-001  2.574440535531732E-001  2.638029216759535E-001 
 2.703188538413374E-001  2.769957295312170E-001  2.838375240506470E-001  2.908483108946819E-001 
 2.980322641737986E-001  3.053936610988781E-001  3.129368845280169E-001  3.206664255758755E-001 
 3.285868862875885E-001  3.367029823788965E-001  3.450195460436457E-001  3.535415288309255E-001 
 3.622740045930621E-001  3.712221725064955E-001  3.803913601674179E-001  3.897870267635388E-001 
 3.994147663246143E-001  4.092803110528355E-001  4.193895347358368E-001  4.297484562438091E-001 
 4.403632431130379E-001  4.512402152179159E-001  4.623858485337960E-001  4.738067789925873E-001 
 4.855098064337082E-001  4.975018986526117E-001  5.097901955493288E-001  5.223820133794156E-001 
 5.352848491098705E-001  5.485063848828985E-001  5.620544925894982E-001  5.759372385564621E-001 
 5.901628883488090E-001  6.047399116910237E-001  6.196769875097802E-001  6.349830091012769E-001 
 6.506670894260855E-001  6.667385665349049E-001  6.832070091283190E-001  7.000822222537806E-001 
 7.173742531434546E-001  7.350933971960943E-001  7.532502041068302E-001  7.718554841482856E-001 
 7.909203146067311E-001  8.104560463775196E-001  8.304743107230492E-001  8.509870261979166E-001 
 8.720064057450124E-001  8.935449639669076E-001  9.156155245768961E-001  9.382312280339378E-001 
 9.614055393663622E-001  9.851522561887178E-001  1.009485516916581E+000  1.034419809184417E+000 
 1.059969978471287E+000  1.086151236939527E+000  1.112979172491924E+000  1.140469758052471E+000 
 1.168639361076376E+000  1.197504753294960E+000  1.227083120701334E+000  1.257392073782662E+000 
 1.288449658005091E+000  1.320274364557816E+000  1.352885141362391E+000  1.386301404354063E+000 
 1.420543049041606E+000  1.455630462352933E+000  1.491584534773036E+000  1.528426672781931E+000 
 1.566178811599638E+000  1.604863428246156E+000  1.644503554923844E+000  1.685122792730449E+000 
 1.726745325710909E+000  1.769395935255966E+000  1.813100014856776E+000  1.857883585223745E+000 
 1.903773309778763E+000
    </PP_RAB>
  </PP_MESH>
  <PP_LOCAL type="real" size="461" columns="4">
-1.427611522285760E+001 -1.427611567565880E+001 -1.427611610276400E+001 -1.427611650405320E+001 
-1.427611687937240E+001 -1.427611722853280E+001 -1.427611755130920E+001 -1.427611784743900E+001 
-1.427611811662080E+001 -1.427611835851360E+001 -1.427611857273520E+001 -1.427611875886000E+001 
-1.427611891641860E+001 -1.427611904489520E+001 -1.427611914372660E+001 -1.427611921229960E+001 
-1.427611924994940E+001 -1.427611925595760E+001 -1.427611922955020E+001 -1.427611916989420E+001 
-1.427611907609700E+001 -1.427611894720180E+001 -1.427611878218660E+001 -1.427611857996040E+001 
-1.427611833936020E+001 -1.427611805914800E+001 -1.427611773800780E+001 -1.427611737454160E+001 
-1.427611696726600E+001 -1.427611651460760E+001 -1.427611601490000E+001 -1.427611546637880E+001 
-1.427611486717720E+001 -1.427611421532080E+001 -1.427611350872380E+001 -1.427611274518180E+001 
-1.427611192236860E+001 -1.427611103782780E+001 -1.427611008896880E+001 -1.427610907305920E+001 
-1.427610798721840E+001 -1.427610682841020E+001 -1.427610559343540E+001 -1.427610427892440E+001 
-1.427610288132800E+001 -1.427610139690960E+001 -1.427609982173520E+001 -1.427609815166480E+001 
-1.427609638234140E+001 -1.427609450918100E+001 -1.427609252736080E+001 -1.427609043180840E+001 
-1.427608821718900E+001 -1.427608587789220E+001 -1.427608340801900E+001 -1.427608080136740E+001 
-1.427607805141700E+001 -1.427607515131440E+001 -1.427607209385540E+001 -1.427606887146820E+001 
-1.427606547619560E+001 -1.427606189967500E+001 -1.427605813311960E+001 -1.427605416729620E+001 
-1.427604999250300E+001 -1.427604559854760E+001 -1.427604097472120E+001 -1.427603610977380E+001 
-1.427603099188700E+001 -1.427602560864560E+001 -1.427601994700860E+001 -1.427601399327660E+001 
-1.427600773306100E+001 -1.427600115124760E+001 -1.427599423196240E+001 -1.427598695853220E+001 
-1.427597931344600E+001 -1.427597127831200E+001 -1.427596283381500E+001 -1.427595395966920E+001 
-1.427594463457080E+001 -1.427593483614660E+001 -1.427592454090080E+001 -1.427591372415900E+001 
-1.427590236001000E+001 -1.427589042124300E+001 -1.427587787928360E+001 -1.427586470412580E+001 
-1.427585086425980E+001 -1.427583632659800E+001 -1.427582105639580E+001 -1.427580501716840E+001 
-1.427578817060520E+001 -1.427577047647780E+001 -1.427575189254440E+001 -1.427573237444960E+001 
-1.427571187561880E+001 -1.427569034714800E+001 -1.427566773768680E+001 -1.427564399331700E+001 
-1.427561905742380E+001 -1.427559287056260E+001 -1.427556537031660E+001 -1.427553649114900E+001 
-1.427550616424820E+001 -1.427547431736300E+001 -1.427544087463280E+001 -1.427540575640640E+001 
-1.427536887905380E+001 -1.427533015476780E+001 -1.427528949135580E+001 -1.427524679202100E+001 
-1.427520195513400E+001 -1.427515487399120E+001 -1.427510543656240E+001 -1.427505352522600E+001 
-1.427499901649000E+001 -1.427494178070100E+001 -1.427488168173600E+001 -1.427481857668200E+001 
-1.427475231549800E+001 -1.427468274065980E+001 -1.427460968678880E+001 -1.427453298026200E+001 
-1.427445243880100E+001 -1.427436787104360E+001 -1.427427907609160E+001 -1.427418584303840E+001 
-1.427408795047120E+001 -1.427398516595100E+001 -1.427387724546440E+001 -1.427376393285100E+001 
-1.427364495920060E+001 -1.427352004222180E+001 -1.427338888557900E+001 -1.427325117819720E+001 
-1.427310659353280E+001 -1.427295478880760E+001 -1.427279540420660E+001 -1.427262806203540E+001 
-1.427245236583620E+001 -1.427226789946220E+001 -1.427207422610360E+001 -1.427187088726860E+001 
-1.427165740171380E+001 -1.427143326432080E+001 -1.427119794491960E+001 -1.427095088705380E+001 
-1.427069150668420E+001 -1.427041919083120E+001 -1.427013329614780E+001 -1.426983314742540E+001 
-1.426951803602400E+001 -1.426918721822700E+001 -1.426883991351320E+001 -1.426847530274620E+001 
-1.426809252627160E+001 -1.426769068192300E+001 -1.426726882292620E+001 -1.426682595570200E+001 
-1.426636103755760E+001 -1.426587297426320E+001 -1.426536061750740E+001 -1.426482276222220E+001 
-1.426425814377540E+001 -1.426366543501660E+001 -1.426304324317360E+001 -1.426239010658720E+001 
-1.426170449127660E+001 -1.426098478732320E+001 -1.426022930506340E+001 -1.425943627107600E+001 
-1.425860382395380E+001 -1.425773000984040E+001 -1.425681277772180E+001 -1.425584997444920E+001 
-1.425483933948020E+001 -1.425377849931060E+001 -1.425266496158080E+001 -1.425149610882360E+001 
-1.425026919183200E+001 -1.424898132261160E+001 -1.424762946688320E+001 -1.424621043609980E+001 
-1.424472087893240E+001 -1.424315727218000E+001 -1.424151591104960E+001 -1.423979289874840E+001 
-1.423798413532480E+001 -1.423608530568520E+001 -1.423409186670660E+001 -1.423199903335760E+001 
-1.422980176372940E+001 -1.422749474286660E+001 -1.422507236527840E+001 -1.422252871599520E+001 
-1.421985755002380E+001 -1.421705227003500E+001 -1.421410590210600E+001 -1.421101106931560E+001 
-1.420775996297260E+001 -1.420434431123720E+001 -1.420075534487020E+001 -1.419698375981620E+001 
-1.419301967630920E+001 -1.418885259414600E+001 -1.418447134375640E+001 -1.417986403265460E+001 
-1.417501798683140E+001 -1.416991968660060E+001 -1.416455469638620E+001 -1.415890758788960E+001 
-1.415296185604000E+001 -1.414669982709200E+001 -1.414010255818920E+001 -1.413314972767820E+001 
-1.412581951541320E+001 -1.411808847225640E+001 -1.410993137794580E+001 -1.410132108646880E+001 
-1.409222835805800E+001 -1.408262167690220E+001 -1.407246705366340E+001 -1.406172781188400E+001 